Executable      : /opt/software/pc2/Siesta/5.2.2/siesta-5.2.2-mpi/build/Src/siesta
Version         : unreleased 21e88d34b (2025-02-04)
Architecture    : x86_64
Compiler version: GNU-13.2.0
Compiler flags  : -O3 -march=native -lscalapack -fallow-argument-mismatch -O3 -march=native
Parallelisations: MPI
NetCDF support
NetCDF-4 support
NetCDF-4 MPI-IO support
Lua support
Native ELPA support
ELSI support. Solvers:
   ELPA (external) 
   NTPoly
   OMM
DFT-D3 support

Runtime information:
* Directory : /scratch/hpc-prf-meop/Projects/2DMaterNanopore/DFT+NEGF+ML/DFT/GRAPHENE_NANOPORE_BIOMOL_ALA/SGLPT_THETA_180_PHI_300_PSI_030
* Running on 64 nodes in parallel.
>> Start of run:  22-DEC-2025  15:38:46

                           *********************** 
                           *  WELCOME TO SIESTA  * 
                           *********************** 

 NOTE: Siesta V5 introduces some new defaults for basis-set generation
 NOTE: which might lead to slightly different numerical results.
 NOTE: Please see the manual for full details and compatibility measures.


reinit: Reading from standard input
reinit: Dumping input in INPUT_TMP.68087
************************** Dump of input data file ****************************
SystemLabel	siesta
NumberOfSpecies	4
NumberOfAtoms	241
%block ChemicalSpecieslabel
    1 6 C
    2 1 H
    3 7 N
    4 8 O
%endblock ChemicalSpecieslabel
LatticeConstant	1.0 Ang
%block LatticeVectors
    24.685487983260018     0.000000000000000     0.000000000000000
    0.000000000000000     25.653911637872664     0.000000000000000
    0.000000000000000     0.000000000000000     19.999999987438091
%endblock LatticeVectors
AtomicCoordinatesFormat  Ang
%block AtomicCoordinatesAndAtomicSpecies
     0.617137199     24.228694325      9.999999993 1
    16.661877175     17.787507251      9.999999999 1
    15.404068592     18.511132114      9.999999994 1
    15.428429989     19.953042385      9.999999993 1
    16.662704388     20.665651042      9.999999993 1
    16.662704388     22.090868355      9.999999993 1
    15.428429989     22.803477011      9.999999993 1
    17.896978787     24.228694325      9.999999993 1
    19.131253187     24.941302981      9.999999993 1
    19.131253187      0.712608657      9.999999993 1
    17.896978787      1.425217313      9.999999993 1
    17.896978787      2.850434626      9.999999993 1
    19.131253187      3.563043283      9.999999993 1
    19.131253187      4.988260596      9.999999993 1
    17.896978787      5.700869253      9.999999993 1
    17.896978787      7.126086567      9.999999993 1
    19.131253187      7.838695223      9.999999993 1
    19.131253187      9.263912536      9.999999993 1
    17.892274080      9.977343270     10.000000008 1
    17.904289481     11.390574713      9.999999998 1
    19.103064970     12.099774496      9.999999989 1
    19.103064968     13.554137138      9.999999988 1
    17.904289479     14.263336921      9.999999996 1
    17.892274081     15.676568367     10.000000006 1
    16.677796396     16.388168018     10.000000006 1
    19.131253187     16.389999102      9.999999993 1
    16.677796396      9.265743615     10.000000009 1
    15.404068591      7.142779522      9.999999986 1
    12.959881192     24.228694325      9.999999993 1
    14.194155590     24.941302981      9.999999993 1
    14.194155590      0.712608657      9.999999993 1
    12.959881192      2.850434626      9.999999993 1
    14.194155590      3.563043283      9.999999993 1
    14.194155590      4.988260596      9.999999993 1
    12.959881192      5.700869253      9.999999993 1
    12.959881187      7.133036192      9.999999994 1
    14.186467353      7.828429446      9.999999983 1
    14.186467358     17.825482185      9.999999998 1
    12.959881191     18.520875446      9.999999986 1
    12.959881192     19.953042385      9.999999993 1
    14.194155590     20.665651042      9.999999993 1
    14.194155590     22.090868355      9.999999993 1
    12.959881192     22.803477011      9.999999993 1
    15.428429989     24.228694325      9.999999993 1
    16.662704388     24.941302981      9.999999993 1
    16.662704388      0.712608657      9.999999993 1
    15.428429989      1.425217313      9.999999993 1
    15.428429989      2.850434626      9.999999993 1
    16.662704388      3.563043283      9.999999993 1
    16.662704388      4.988260596      9.999999993 1
    15.428429989      5.700869253      9.999999993 1
    16.661877175      7.866404380      9.999999988 1
    19.131253187     17.815216416      9.999999993 1
    17.896978787     18.527825072      9.999999993 1
    17.896978787     19.953042385      9.999999993 1
    24.068350784     24.941302981      9.999999993 1
    24.068350784      0.712608657      9.999999993 1
    22.834076384      1.425217313      9.999999993 1
    22.834076384      2.850434626      9.999999993 1
    24.068350784      3.563043283      9.999999993 1
    24.068350784      4.988260596      9.999999993 1
    22.834076384      5.700869253      9.999999993 1
    22.834076384      7.126086567      9.999999993 1
    24.068350784      7.838695223      9.999999993 1
    24.068350784      9.263912536      9.999999993 1
    22.834076384      9.976521193      9.999999993 1
    22.834076384     11.401738506      9.999999993 1
    24.068350784     12.114347162      9.999999993 1
    24.068350784     13.539564475      9.999999993 1
    22.834076384     14.252173132      9.999999993 1
    22.834076384     15.677390445      9.999999993 1
    24.068350784     16.389999102      9.999999993 1
    24.068350784     17.815216416      9.999999993 1
    22.834076384     18.527825072      9.999999993 1
    22.834076384     19.953042385      9.999999993 1
    24.068350784     20.665651042      9.999999993 1
    24.068350784     22.090868355      9.999999993 1
    22.834076384     22.803477011      9.999999993 1
    22.834076384     24.228694325      9.999999993 1
    20.365527586     22.803477011      9.999999993 1
    21.599801985     22.090868355      9.999999993 1
    21.599801985     20.665651042      9.999999993 1
    19.131253187     20.665651042      9.999999993 1
    19.131253187     22.090868355      9.999999993 1
    17.896978787     22.803477011      9.999999993 1
    20.365527586     24.228694325      9.999999993 1
    21.599801985     24.941302981      9.999999993 1
    21.599801985      0.712608657      9.999999993 1
    20.365527586      1.425217313      9.999999993 1
    20.365527586      2.850434626      9.999999993 1
    21.599801985      3.563043283      9.999999993 1
    21.599801985      4.988260596      9.999999993 1
    20.365527586      5.700869253      9.999999993 1
    10.491332393     22.803477011      9.999999993 1
    20.365527586      7.126086567      9.999999993 1
    21.599801985      9.263912536      9.999999993 1
    20.365527586      9.976521193      9.999999993 1
    20.365527586     11.401738506      9.999999993 1
    21.599801985     12.114347162      9.999999993 1
    21.599801985     13.539564475      9.999999993 1
    20.365527586     14.252173132      9.999999993 1
    20.365527586     15.677390445      9.999999993 1
    21.599801985     16.389999102      9.999999993 1
    21.599801985     17.815216416      9.999999993 1
    20.365527586     18.527825072      9.999999993 1
    20.365527586     19.953042385      9.999999993 1
    21.599801985      7.838695223      9.999999993 1
    11.725606792     22.090868355      9.999999993 1
    12.959881192      1.425217313      9.999999993 1
    10.491332393     19.953042385      9.999999993 1
     4.319960397      3.563043283      9.999999993 1
     4.319960397      4.988260596      9.999999993 1
     3.085685998      5.700869253      9.999999993 1
     3.085685998      7.126086567      9.999999993 1
     4.319960397      7.838695223      9.999999993 1
     4.319960397      9.263912536      9.999999993 1
     3.085685998      9.976521193      9.999999993 1
     3.085685998     11.401738506      9.999999993 1
     4.319960397     12.114347162      9.999999993 1
     4.319960397     13.539564475      9.999999993 1
     3.085685998     14.252173132      9.999999993 1
     3.085685998     15.677390445      9.999999993 1
     4.319960397     16.389999102      9.999999993 1
     4.319960397     17.815216416      9.999999993 1
     3.085685998     18.527825072      9.999999993 1
     3.085685998     19.953042385      9.999999993 1
     4.319960397     20.665651042      9.999999993 1
     4.319960397     22.090868355      9.999999993 1
     3.085685998     22.803477011      9.999999993 1
    11.725606792     20.665651042      9.999999993 1
     6.788509196     24.941302981      9.999999993 1
     6.788509196      0.712608657      9.999999993 1
     5.554234797      1.425217313      9.999999993 1
     3.085685998      2.850434626      9.999999993 1
     3.085685998      1.425217313      9.999999993 1
     4.319960397      0.712608657      9.999999993 1
     4.319960397     24.941302981      9.999999993 1
     1.851411599     24.941302981      9.999999993 1
     1.851411599      0.712608657      9.999999993 1
     0.617137199      1.425217313      9.999999993 1
     0.617137199      2.850434626      9.999999993 1
     1.851411599      3.563043283      9.999999993 1
     1.851411599      4.988260596      9.999999993 1
     0.617137199      5.700869253      9.999999993 1
     0.617137199      7.126086567      9.999999993 1
     1.851411599      7.838695223      9.999999993 1
     1.851411599      9.263912536      9.999999993 1
     0.617137199      9.976521193      9.999999993 1
     5.554234797      2.850434626      9.999999993 1
     0.617137199     11.401738506      9.999999993 1
     1.851411599     13.539564475      9.999999993 1
     0.617137199     14.252173132      9.999999993 1
     0.617137199     15.677390445      9.999999993 1
     1.851411599     16.389999102      9.999999993 1
     1.851411599     17.815216416      9.999999993 1
     0.617137199     18.527825072      9.999999993 1
     0.617137199     19.953042385      9.999999993 1
     1.851411599     20.665651042      9.999999993 1
     1.851411599     22.090868355      9.999999993 1
     0.617137199     22.803477011      9.999999993 1
     3.085685998     24.228694325      9.999999993 1
     1.851411599     12.114347162      9.999999993 1
     6.788509196      3.563043283      9.999999993 1
     5.554234797     24.228694325      9.999999993 1
     5.554234797      5.700869253      9.999999993 1
     8.027488304      9.977343270      9.999999986 1
     8.015472905     11.390574713     10.000000004 1
     8.015472907     14.263336922     10.000000000 1
     6.788509196      4.988260596      9.999999993 1
     9.241965996     16.388168021     10.000000023 1
     9.257885205     17.787507251     10.000000006 1
     8.022783595     18.527825072      9.999999993 1
     8.022783595     19.953042385      9.999999993 1
     9.257057994     20.665651042      9.999999993 1
     9.257057994     22.090868355      9.999999993 1
     8.022783595     22.803477011      9.999999993 1
    10.491332393     24.228694325      9.999999993 1
    11.725606792     24.941302981      9.999999993 1
    11.725606792      0.712608657      9.999999993 1
    10.491332393      1.425217313      9.999999993 1
    10.491332393      2.850434626      9.999999993 1
    11.725606792      3.563043283      9.999999993 1
    11.725606792      4.988260596      9.999999993 1
    10.491332393      5.700869253      9.999999993 1
    10.515693795      7.142779522     10.000000027 1
    11.733295023      7.828429455     10.000000025 1
    11.733295023     17.825482186      9.999999992 1
    10.515693793     18.511132117      9.999999999 1
     9.241965990      9.265743609      9.999999987 1
     9.257885209      7.866404384     10.000000000 1
     8.027488313     15.676568366     10.000000023 1
     8.022783595      5.700869253      9.999999993 1
     5.554234797      7.126086567      9.999999993 1
     6.788509196      7.838695223      9.999999993 1
     6.788509196      9.263912536      9.999999993 1
     5.554234797      9.976521193      9.999999993 1
     5.554234797     11.401738506      9.999999993 1
     8.022783595      7.126086567      9.999999993 1
     6.816697412     13.554137139      9.999999981 1
     5.554234797     14.252173132      9.999999993 1
     5.554234797     15.677390445      9.999999993 1
     6.788509196     16.389999102      9.999999993 1
     6.788509196     17.815216416      9.999999993 1
     6.816697409     12.099774496      9.999999990 1
     5.554234797     19.953042385      9.999999993 1
     5.554234797     18.527825072      9.999999993 1
     9.257057994      3.563043283      9.999999993 1
     8.022783595      2.850434626      9.999999993 1
     8.022783595      1.425217313      9.999999993 1
     9.257057994      0.712608657      9.999999993 1
     9.257057994      4.988260596      9.999999993 1
     8.022783595     24.228694325      9.999999993 1
     5.554234797     22.803477011      9.999999993 1
     6.788509196     22.090868355      9.999999993 1
     6.788509196     20.665651042      9.999999993 1
     9.257057994     24.941302981      9.999999993 1
    15.744565851     15.799432360     10.000000001 2
    15.744565859      9.854479278      9.999999998 2
    14.143251523     16.722826843     10.000000023 2
    14.143251522      8.931084792      9.999999981 2
    11.776510846     16.722826837      9.999999998 2
    10.175196553     15.799432385     10.000000005 2
     8.992643581     13.750494156      9.999999994 2
     8.992643579     11.903417481      9.999999987 2
    10.175196533      9.854479269      9.999999992 2
    16.927118815     11.903417488     10.000000007 2
    11.776510861      8.931084796      9.999999995 2
    16.927118811     13.750494130      9.999999987 2
    12.593946308     12.822830672     14.675750108 1
    11.812970089     13.663626804     15.725624285 1
    12.282273780     13.356378077     13.268785205 1
    11.160168318     11.978256384     16.173650159 2
    13.677850357     12.967151737     14.900954819 2
    12.928390683     12.873120953     12.500000027 2
    11.212580895     13.166028071     13.011237085 2
    12.447916755     14.456504446     13.254081593 2
    11.830229552     10.960090430     13.964781546 2
    13.061027580     10.774164701     15.087082685 2
    12.215653479     11.349747424     14.859513401 3
    11.007637626     12.917097330     16.520493175 4
    11.922097960     14.879746937     15.799819852 4
%endblock AtomicCoordinatesAndAtomicSpecies
###K-Point Mesh###
%block kgrid_Monkhorst_Pack
1   0   0   0.0
0   1   0   0.0
0   0   1   0.0
%endblock kgrid_Monkhorst_Pack
###SCF PARAMS###
MeshCutoff          250 Ry
PAO.BasisType       split
PAO.BasisSize       DZP
PAO.EnergyShift     0.1 eV
XC.functional VDW
XC.authors KBM
MaxSCFIterations   2000
SCF.MustConverge    T
DM.MixingWeight    0.01
DM.NumberPulay     20
DM.Tolerance        1.d-5
DM.UseSaveDM        T
ElectronicTemperature 300 K
DirectPhi           T
###DIAGONALIZATION###
SolutionMethod      diagon
###DIAG-ALGORITHM###
# Diag.Algorithm ELPA
###CACHE WAVEFUNC###
# Diag.WFS.Cache cdf
###PARALLELIZATION###
Diag.ParallelOverK  F
###MOLECULAR DYNAMICS###
MD.TypeOfRun        CG
MD.NumCGsteps       0
MD.UseSaveXV        T
MD.UseSaveCG        T
************************** End of input data file *****************************

reinit: -----------------------------------------------------------------------
reinit: System Name: 
reinit: -----------------------------------------------------------------------
reinit: System Label: siesta
reinit: -----------------------------------------------------------------------

initatom: Reading input for the pseudopotentials and atomic orbitals ----------
Species number:   1 Atomic number:    6 Label: C
Species number:   2 Atomic number:    1 Label: H
Species number:   3 Atomic number:    7 Label: N
Species number:   4 Atomic number:    8 Label: O

Ground state valence configuration (from tables):   2s02  2p02  3d00  4f00
Ground state valence configuration (from tables):   1s01  2p00  3d00  4f00
Ground state valence configuration (from tables):   2s02  2p03  3d00  4f00
Ground state valence configuration (from tables):   2s02  2p04  3d00  4f00

---- Processing specs for species: C
Reading pseudopotential information in formatted form from:
  C.psf

---- Processing specs for species: H
Reading pseudopotential information in formatted form from:
  H.psf

---- Processing specs for species: N
Reading pseudopotential information in formatted form from:
  N.psf

---- Processing specs for species: O
Reading pseudopotential information in formatted form from:
  O.psf

---- Pseudopotential check for  C

Pseudopotential generated from a fully relativistic atomic calculation
There are spin-orbit semi-local pseudopotentials available

Pseudized shells:
2s( 2.00) rc: 1.01
2p( 2.00) rc: 1.28
3d( 0.00) rc: 1.60
4f( 0.00) rc: 1.60
Valence configuration for ps generation: (assumed as above)

---- Pseudopotential check for  H

Pseudopotential generated from a fully relativistic atomic calculation
There are spin-orbit semi-local pseudopotentials available

Pseudized shells:
1s( 1.00) rc: 1.31
2p( 0.00) rc: 1.13
3d( 0.00) rc: 1.09
4f( 0.00) rc: 1.14
Valence configuration for ps generation: (assumed as above)

---- Pseudopotential check for N 

Pseudopotential generated from a fully relativistic atomic calculation
There are spin-orbit semi-local pseudopotentials available

Pseudized shells:
2s( 2.00) rc: 1.29
2p( 3.00) rc: 1.42
3d( 0.00) rc: 1.74
4f( 0.00) rc: 2.98
Valence configuration for ps generation: (assumed as above)

---- Pseudopotential check for  O

Pseudopotential generated from a fully relativistic atomic calculation
There are spin-orbit semi-local pseudopotentials available

Pseudized shells:
2s( 2.00) rc: 0.77
2p( 4.00) rc: 1.77
3d( 0.00) rc: 1.07
4f( 0.00) rc: 1.66
Valence configuration for ps generation: (assumed as above)
For C, standard SIESTA heuristics set lmxkb to 3
 (one more than the basis l, including polarization orbitals).
Use PS.lmax or PS.KBprojectors blocks to override.
For H, standard SIESTA heuristics set lmxkb to 2
 (one more than the basis l, including polarization orbitals).
Use PS.lmax or PS.KBprojectors blocks to override.
For N, standard SIESTA heuristics set lmxkb to 3
 (one more than the basis l, including polarization orbitals).
Use PS.lmax or PS.KBprojectors blocks to override.
For O, standard SIESTA heuristics set lmxkb to 3
 (one more than the basis l, including polarization orbitals).
Use PS.lmax or PS.KBprojectors blocks to override.

<basis_specs>
===============================================================================
C                    Z=   6    Mass=  12.011        Charge= 0.17977+309
Lmxo=2 Lmxkb= 3    BasisType=split      Semic=F
L=0  Nsemic=0  Cnfigmx=2
          i=1  nzeta=2  polorb=0  (2s)
            splnorm:   0.15000    
               vcte:    40.000    
               rinn:  -0.90000    
               qcoe:    0.0000    
               qyuk:    0.0000    
               qwid:   0.10000E-01
                rcs:    0.0000      0.0000    
            lambdas:    1.0000      1.0000    
L=1  Nsemic=0  Cnfigmx=2
          i=1  nzeta=2  polorb=1  (2p)  (to be polarized perturbatively)
            splnorm:   0.15000    
               vcte:    40.000    
               rinn:  -0.90000    
               qcoe:    0.0000    
               qyuk:    0.0000    
               qwid:   0.10000E-01
                rcs:    0.0000      0.0000    
            lambdas:    1.0000      1.0000    
L=2  Nsemic=0  Cnfigmx=3
          i=1  nzeta=0  polorb=0  (3d)  (perturbative polarization orbital) (from 2p)
-------------------------------------------------------------------------------
L=0  Nkbl=1  erefs: 0.17977+309
L=1  Nkbl=1  erefs: 0.17977+309
L=2  Nkbl=1  erefs: 0.17977+309
L=3  Nkbl=1  erefs: 0.17977+309
===============================================================================
</basis_specs>

Using PAO.SplitTailNorm
atom: Called for C                     (Z =   6)
Maximum radius (at nrval) set to   50.00000 8518

read_vps: Pseudopotential generation method:
read_vps: ATM4.1.0  Troullier-Martins                       
Valence charge in pseudo generation:    4.00000

read_vps: Pseudopotential includes a core correction:
read_vps: Pseudo-core for xc-correction

xc_check: Exchange-correlation functional:
xc_check: VDW Klimes-Bowler-Michaelides
xc_check: WARNING: Pseudopotential generated with GGA PBE functional
V l=0 = -2*Zval/r beyond r=  1.3182
V l=1 = -2*Zval/r beyond r=  1.3464
V l=2 = -2*Zval/r beyond r=  1.5833
V l=3 = -2*Zval/r beyond r=  1.5786
All V_l potentials equal beyond r=  1.5770
This should be close to max(r_c) in ps generation
All pots = -2*Zval/r beyond r=  1.5833
Using small-core scheme (local charge) for Vlocal

VLOCAL_FROM_CHLOCAL: 99.0% of the norm of Vloc inside     17.455 Ry
VLOCAL_FROM_CHLOCAL: 99.9% of the norm of Vloc inside     39.780 Ry
atom: Maximum radius for chlocal:    1.88237
atom: Maximum radius for r*vlocal+2*Zval:    1.72643

KBgen: Kleinman-Bylander projectors: 
GHOST: No ghost state for L =  0
   l= 0   rc=  1.736877   el= -1.020388   Ekb=  8.249114   kbcos=  0.220505
GHOST: No ghost state for L =  1
   l= 1   rc=  1.735131   el= -0.401258   Ekb= -5.619827   kbcos= -0.328599
GHOST: No ghost state for L =  2
   l= 2   rc=  2.031796   el=  0.013225   Ekb= -0.930857   kbcos= -0.011208
GHOST: No ghost state for L =  3
   l= 3   rc=  2.292119   el=  0.019576   Ekb= -0.391040   kbcos= -0.001576

KBgen: Total number of Kleinman-Bylander projectors:  16
atom: -------------------------------------------------------------------------

atom: SANKEY-TYPE ORBITALS:
atom: Selected multiple-zeta basis: split     

SPLIT: Orbitals with angular momentum L= 0

SPLIT: Basis orbitals for state 2s

SPLIT: PAO cut-off radius determined from an
SPLIT: energy shift=  0.007350 Ry
Split based on tail norm

   izeta = 1
                 lambda =    1.000000
                     rc =    4.649135
                 energy =   -1.012056
                kinetic =    0.924199
    potential(screened) =   -1.936254
       potential(ionic) =   -5.500926

   izeta = 2
                 rmatch =    3.097535
              splitnorm =    0.150000
                 energy =   -0.753048
                kinetic =    1.677436
    potential(screened) =   -2.430485
       potential(ionic) =   -6.288589

SPLIT: Orbitals with angular momentum L= 1

SPLIT: Basis orbitals for state 2p

SPLIT: PAO cut-off radius determined from an
SPLIT: energy shift=  0.007350 Ry
Split based on tail norm

   izeta = 1
                 lambda =    1.000000
                     rc =    5.669310
                 energy =   -0.392975
                kinetic =    2.506148
    potential(screened) =   -2.899123
       potential(ionic) =   -6.340802

   izeta = 2
                 rmatch =    3.774182
              splitnorm =    0.150000
                 energy =   -0.275270
                kinetic =    3.603259
    potential(screened) =   -3.878528
       potential(ionic) =   -7.663255

POLgen: Perturbative polarization orbital with L=  2

POLgen: Polarization orbital for state 2p
Split based on tail norm

   izeta = 1
                     rc =    5.669310
                 energy =    1.122389
                kinetic =    2.278964
    potential(screened) =   -1.156575
       potential(ionic) =   -3.981653
atom: Total number of Sankey-type orbitals: 13

atm_pop: Valence configuration (for local Pseudopot. screening):
 2s( 2.00)                                                            
 2p( 2.00)                                                            
 3d( 0.00)                                                            
Vna: chval, zval:    4.00000   4.00000

Vna:  Cut-off radius for the neutral-atom potential:   5.669310
comcore: Pseudo-core radius Rcore=  1.772167

atom: _________________________________________________________________________

<basis_specs>
===============================================================================
H                    Z=   1    Mass=  1.0080        Charge= 0.17977+309
Lmxo=1 Lmxkb= 2    BasisType=split      Semic=F
L=0  Nsemic=0  Cnfigmx=1
          i=1  nzeta=2  polorb=1  (1s)  (to be polarized perturbatively)
            splnorm:   0.15000    
               vcte:    40.000    
               rinn:  -0.90000    
               qcoe:    0.0000    
               qyuk:    0.0000    
               qwid:   0.10000E-01
                rcs:    0.0000      0.0000    
            lambdas:    1.0000      1.0000    
L=1  Nsemic=0  Cnfigmx=2
          i=1  nzeta=0  polorb=0  (2p)  (perturbative polarization orbital) (from 1s)
-------------------------------------------------------------------------------
L=0  Nkbl=1  erefs: 0.17977+309
L=1  Nkbl=1  erefs: 0.17977+309
L=2  Nkbl=1  erefs: 0.17977+309
===============================================================================
</basis_specs>

Using PAO.SplitTailNorm
atom: Called for H                     (Z =   1)
Maximum radius (at nrval) set to   50.00000 8518

read_vps: Pseudopotential generation method:
read_vps: ATM4.1.0  Troullier-Martins                       
Valence charge in pseudo generation:    1.00000

xc_check: Exchange-correlation functional:
xc_check: VDW Klimes-Bowler-Michaelides
xc_check: WARNING: Pseudopotential generated with GGA PBE functional
V l=0 = -2*Zval/r beyond r=  1.3024
V l=1 = -2*Zval/r beyond r=  1.2802
V l=2 = -2*Zval/r beyond r=  1.2802
All V_l potentials equal beyond r=  1.3011
This should be close to max(r_c) in ps generation
All pots = -2*Zval/r beyond r=  1.3024
Using small-core scheme (local charge) for Vlocal

VLOCAL_FROM_CHLOCAL: 99.0% of the norm of Vloc inside     25.643 Ry
VLOCAL_FROM_CHLOCAL: 99.9% of the norm of Vloc inside     58.442 Ry
atom: Maximum radius for chlocal:    1.51933
atom: Maximum radius for r*vlocal+2*Zval:    1.37795

KBgen: Kleinman-Bylander projectors: 
GHOST: No ghost state for L =  0
   l= 0   rc=  1.452036   el= -0.494844   Ekb= -1.962033   kbcos= -0.366867
GHOST: No ghost state for L =  1
   l= 1   rc=  1.709150   el=  0.006534   Ekb= -0.631641   kbcos= -0.022353
GHOST: No ghost state for L =  2
   l= 2   rc=  2.001398   el=  0.013276   Ekb= -0.260152   kbcos= -0.002632

KBgen: Total number of Kleinman-Bylander projectors:   9
atom: -------------------------------------------------------------------------

atom: SANKEY-TYPE ORBITALS:
atom: Selected multiple-zeta basis: split     

SPLIT: Orbitals with angular momentum L= 0

SPLIT: Basis orbitals for state 1s

SPLIT: PAO cut-off radius determined from an
SPLIT: energy shift=  0.007350 Ry
Split based on tail norm

   izeta = 1
                 lambda =    1.000000
                     rc =    5.424839
                 energy =   -0.486555
                kinetic =    0.944729
    potential(screened) =   -1.431284
       potential(ionic) =   -1.937848

   izeta = 2
                 rmatch =    3.582433
              splitnorm =    0.150000
                 energy =   -0.330505
                kinetic =    1.688410
    potential(screened) =   -2.018915
       potential(ionic) =   -2.546203

POLgen: Perturbative polarization orbital with L=  1

POLgen: Polarization orbital for state 1s
Split based on tail norm

   izeta = 1
                     rc =    5.424839
                 energy =    0.650312
                kinetic =    1.305598
    potential(screened) =   -0.655287
       potential(ionic) =   -1.130048
atom: Total number of Sankey-type orbitals:  5

atm_pop: Valence configuration (for local Pseudopot. screening):
 1s( 1.00)                                                            
 2p( 0.00)                                                            
Vna: chval, zval:    1.00000   1.00000

Vna:  Cut-off radius for the neutral-atom potential:   5.424839

atom: _________________________________________________________________________

<basis_specs>
===============================================================================
N                    Z=   7    Mass=  14.007        Charge= 0.17977+309
Lmxo=2 Lmxkb= 3    BasisType=split      Semic=F
L=0  Nsemic=0  Cnfigmx=2
          i=1  nzeta=2  polorb=0  (2s)
            splnorm:   0.15000    
               vcte:    40.000    
               rinn:  -0.90000    
               qcoe:    0.0000    
               qyuk:    0.0000    
               qwid:   0.10000E-01
                rcs:    0.0000      0.0000    
            lambdas:    1.0000      1.0000    
L=1  Nsemic=0  Cnfigmx=2
          i=1  nzeta=2  polorb=1  (2p)  (to be polarized perturbatively)
            splnorm:   0.15000    
               vcte:    40.000    
               rinn:  -0.90000    
               qcoe:    0.0000    
               qyuk:    0.0000    
               qwid:   0.10000E-01
                rcs:    0.0000      0.0000    
            lambdas:    1.0000      1.0000    
L=2  Nsemic=0  Cnfigmx=3
          i=1  nzeta=0  polorb=0  (3d)  (perturbative polarization orbital) (from 2p)
-------------------------------------------------------------------------------
L=0  Nkbl=1  erefs: 0.17977+309
L=1  Nkbl=1  erefs: 0.17977+309
L=2  Nkbl=1  erefs: 0.17977+309
L=3  Nkbl=1  erefs: 0.17977+309
===============================================================================
</basis_specs>

Using PAO.SplitTailNorm
atom: Called for N                     (Z =   7)
Maximum radius (at nrval) set to   50.00000 8518

read_vps: Pseudopotential generation method:
read_vps: ATM4.1.0  Troullier-Martins                       
Valence charge in pseudo generation:    5.00000

read_vps: Pseudopotential includes a core correction:
read_vps: Pseudo-core for xc-correction

xc_check: Exchange-correlation functional:
xc_check: VDW Klimes-Bowler-Michaelides
xc_check: WARNING: Pseudopotential generated with GGA PBE functional
V l=0 = -2*Zval/r beyond r=  1.3919
V l=1 = -2*Zval/r beyond r=  1.4145
V l=2 = -2*Zval/r beyond r=  1.7230
V l=3 = -2*Zval/r beyond r=  2.9342
All V_l potentials equal beyond r=  2.9166
This should be close to max(r_c) in ps generation
All pots = -2*Zval/r beyond r=  2.9342
Using small-core scheme (local charge) for Vlocal

VLOCAL_FROM_CHLOCAL: 99.0% of the norm of Vloc inside      5.103 Ry
VLOCAL_FROM_CHLOCAL: 99.9% of the norm of Vloc inside     11.630 Ry
atom: Maximum radius for chlocal:    3.45541
atom: Maximum radius for r*vlocal+2*Zval:    3.20822

KBgen: Kleinman-Bylander projectors: 
GHOST: No ghost state for L =  0
   l= 0   rc=  3.023842   el= -1.375728   Ekb= -2.823702   kbcos= -0.744201
GHOST: No ghost state for L =  1
   l= 1   rc=  2.987653   el= -0.533023   Ekb= -8.682923   kbcos= -0.586664
GHOST: No ghost state for L =  2
   l= 2   rc=  3.306234   el=  0.013276   Ekb= -1.644735   kbcos= -0.033118
GHOST: No ghost state for L =  3
   l= 3   rc=  3.448482   el=  0.019583   Ekb= -0.283699   kbcos= -0.015721

KBgen: Total number of Kleinman-Bylander projectors:  16
atom: -------------------------------------------------------------------------

atom: SANKEY-TYPE ORBITALS:
atom: Selected multiple-zeta basis: split     

SPLIT: Orbitals with angular momentum L= 0

SPLIT: Basis orbitals for state 2s

SPLIT: PAO cut-off radius determined from an
SPLIT: energy shift=  0.007350 Ry
Split based on tail norm

   izeta = 1
                 lambda =    1.000000
                     rc =    4.081165
                 energy =   -1.367466
                kinetic =    1.207915
    potential(screened) =   -2.575381
       potential(ionic) =   -8.096668

   izeta = 2
                 rmatch =    2.654003
              splitnorm =    0.150000
                 energy =   -1.049355
                kinetic =    2.089693
    potential(screened) =   -3.139048
       potential(ionic) =   -9.141946

SPLIT: Orbitals with angular momentum L= 1

SPLIT: Basis orbitals for state 2p

SPLIT: PAO cut-off radius determined from an
SPLIT: energy shift=  0.007350 Ry
Split based on tail norm

   izeta = 1
                 lambda =    1.000000
                     rc =    4.996964
                 energy =   -0.524823
                kinetic =    3.499383
    potential(screened) =   -4.024206
       potential(ionic) =   -9.360818

   izeta = 2
                 rmatch =    3.237319
              splitnorm =    0.150000
                 energy =   -0.376275
                kinetic =    4.926275
    potential(screened) =   -5.302550
       potential(ionic) =  -11.169650

POLgen: Perturbative polarization orbital with L=  2

POLgen: Polarization orbital for state 2p
Split based on tail norm

   izeta = 1
                     rc =    4.996964
                 energy =    1.593927
                kinetic =    3.073939
    potential(screened) =   -1.480013
       potential(ionic) =   -5.759099
atom: Total number of Sankey-type orbitals: 13

atm_pop: Valence configuration (for local Pseudopot. screening):
 2s( 2.00)                                                            
 2p( 3.00)                                                            
 3d( 0.00)                                                            
Vna: chval, zval:    5.00000   5.00000

Vna:  Cut-off radius for the neutral-atom potential:   4.996964
comcore: Pseudo-core radius Rcore=  1.539341

atom: _________________________________________________________________________

<basis_specs>
===============================================================================
O                    Z=   8    Mass=  15.999        Charge= 0.17977+309
Lmxo=2 Lmxkb= 3    BasisType=split      Semic=F
L=0  Nsemic=0  Cnfigmx=2
          i=1  nzeta=2  polorb=0  (2s)
            splnorm:   0.15000    
               vcte:    40.000    
               rinn:  -0.90000    
               qcoe:    0.0000    
               qyuk:    0.0000    
               qwid:   0.10000E-01
                rcs:    0.0000      0.0000    
            lambdas:    1.0000      1.0000    
L=1  Nsemic=0  Cnfigmx=2
          i=1  nzeta=2  polorb=1  (2p)  (to be polarized perturbatively)
            splnorm:   0.15000    
               vcte:    40.000    
               rinn:  -0.90000    
               qcoe:    0.0000    
               qyuk:    0.0000    
               qwid:   0.10000E-01
                rcs:    0.0000      0.0000    
            lambdas:    1.0000      1.0000    
L=2  Nsemic=0  Cnfigmx=3
          i=1  nzeta=0  polorb=0  (3d)  (perturbative polarization orbital) (from 2p)
-------------------------------------------------------------------------------
L=0  Nkbl=1  erefs: 0.17977+309
L=1  Nkbl=1  erefs: 0.17977+309
L=2  Nkbl=1  erefs: 0.17977+309
L=3  Nkbl=1  erefs: 0.17977+309
===============================================================================
</basis_specs>

Using PAO.SplitTailNorm
atom: Called for O                     (Z =   8)
Maximum radius (at nrval) set to   50.00000 8518

read_vps: Pseudopotential generation method:
read_vps: ATM4.1.0  Troullier-Martins                       
Valence charge in pseudo generation:    6.00000

read_vps: Pseudopotential includes a core correction:
read_vps: Pseudo-core for xc-correction

xc_check: Exchange-correlation functional:
xc_check: VDW Klimes-Bowler-Michaelides
xc_check: WARNING: Pseudopotential generated with GGA PBE functional
V l=0 = -2*Zval/r beyond r=  1.7247
V l=1 = -2*Zval/r beyond r=  1.7580
V l=2 = -2*Zval/r beyond r=  1.7247
V l=3 = -2*Zval/r beyond r=  1.7247
All V_l potentials equal beyond r=  1.7562
This should be close to max(r_c) in ps generation
All pots = -2*Zval/r beyond r=  1.7580
Using small-core scheme (local charge) for Vlocal

VLOCAL_FROM_CHLOCAL: 99.0% of the norm of Vloc inside     14.074 Ry
VLOCAL_FROM_CHLOCAL: 99.9% of the norm of Vloc inside     32.075 Ry
atom: Maximum radius for chlocal:    2.10664
atom: Maximum radius for r*vlocal+2*Zval:    1.94000

KBgen: Kleinman-Bylander projectors: 
GHOST: No ghost state for L =  0
   l= 0   rc=  1.914815   el= -1.777109   Ekb=-12.883099   kbcos= -0.199777
GHOST: No ghost state for L =  1
   l= 1   rc=  1.905215   el= -0.682147   Ekb= -6.438893   kbcos= -0.577559
GHOST: No ghost state for L =  2
   l= 2   rc=  2.093978   el=  0.013299   Ekb= -2.963186   kbcos= -0.008111
GHOST: No ghost state for L =  3
   l= 3   rc=  2.402901   el=  0.019585   Ekb= -0.577341   kbcos= -0.002012

KBgen: Total number of Kleinman-Bylander projectors:  16
atom: -------------------------------------------------------------------------

atom: SANKEY-TYPE ORBITALS:
atom: Selected multiple-zeta basis: split     

SPLIT: Orbitals with angular momentum L= 0

SPLIT: Basis orbitals for state 2s

SPLIT: PAO cut-off radius determined from an
SPLIT: energy shift=  0.007350 Ry
Split based on tail norm

   izeta = 1
                 lambda =    1.000000
                     rc =    3.655005
                 energy =   -1.768939
                kinetic =    1.719971
    potential(screened) =   -3.488910
       potential(ionic) =  -11.303034

   izeta = 2
                 rmatch =    2.326911
              splitnorm =    0.150000
                 energy =   -1.349000
                kinetic =    3.044643
    potential(screened) =   -4.393643
       potential(ionic) =  -12.875785

SPLIT: Orbitals with angular momentum L= 1

SPLIT: Basis orbitals for state 2p

SPLIT: PAO cut-off radius determined from an
SPLIT: energy shift=  0.007350 Ry
Split based on tail norm

   izeta = 1
                 lambda =    1.000000
                     rc =    4.475410
                 energy =   -0.673990
                kinetic =    4.284088
    potential(screened) =   -4.958077
       potential(ionic) =  -12.470506

   izeta = 2
                 rmatch =    2.832915
              splitnorm =    0.150000
                 energy =   -0.486678
                kinetic =    5.911252
    potential(screened) =   -6.397931
       potential(ionic) =  -14.613396

POLgen: Perturbative polarization orbital with L=  2

POLgen: Polarization orbital for state 2p
Split based on tail norm

   izeta = 1
                     rc =    4.475410
                 energy =    2.156729
                kinetic =    4.153113
    potential(screened) =   -1.996384
       potential(ionic) =   -8.041506
atom: Total number of Sankey-type orbitals: 13

atm_pop: Valence configuration (for local Pseudopot. screening):
 2s( 2.00)                                                            
 2p( 4.00)                                                            
 3d( 0.00)                                                            
Vna: chval, zval:    6.00000   6.00000

Vna:  Cut-off radius for the neutral-atom potential:   4.475410
comcore: Pseudo-core radius Rcore=  1.364142

atom: _________________________________________________________________________

prinput: Basis input 

PAO.BasisType split     

%block ChemicalSpeciesLabel
    1    6 C                       # Species index, atomic number, species label
    2    1 H                       # Species index, atomic number, species label
    3    7 N                       # Species index, atomic number, species label
    4    8 O                       # Species index, atomic number, species label
%endblock ChemicalSpeciesLabel

%block PAO.Basis                 # Define Basis set
# WARNING: This information might be incomplete!
C                     2                    # Species label, number of l-shells
 n=2   0   2                         # n, l, Nzeta 
   4.649      3.098   
   1.000      1.000   
 n=2   1   2 P   1                   # n, l, Nzeta, Polarization, NzetaPol
   5.669      3.774   
   1.000      1.000   
H                     1                    # Species label, number of l-shells
 n=1   0   2 P   1                   # n, l, Nzeta, Polarization, NzetaPol
   5.425      3.582   
   1.000      1.000   
N                     2                    # Species label, number of l-shells
 n=2   0   2                         # n, l, Nzeta 
   4.081      2.654   
   1.000      1.000   
 n=2   1   2 P   1                   # n, l, Nzeta, Polarization, NzetaPol
   4.997      3.237   
   1.000      1.000   
O                     2                    # Species label, number of l-shells
 n=2   0   2                         # n, l, Nzeta 
   3.655      2.327   
   1.000      1.000   
 n=2   1   2 P   1                   # n, l, Nzeta, Polarization, NzetaPol
   4.475      2.833   
   1.000      1.000   
%endblock PAO.Basis

prinput: ----------------------------------------------------------------------

Dumping basis to NetCDF file C.ion.nc
Dumping basis to NetCDF file H.ion.nc
Dumping basis to NetCDF file N.ion.nc
Dumping basis to NetCDF file O.ion.nc
coor:   Atomic-coordinates input format  =     Cartesian coordinates
coor:                                          (in Angstroms)

siesta: WARNING: XV file not found

siesta: Atomic coordinates (Bohr) and species
siesta:      1.16622  45.78560  18.89726  1        1
siesta:     31.48638  33.61352  18.89726  1        2
siesta:     29.10947  34.98097  18.89726  1        3
siesta:     29.15551  37.70579  18.89726  1        4
siesta:     31.48795  39.05242  18.89726  1        5
siesta:     31.48795  41.74569  18.89726  1        6
siesta:     29.15551  43.09233  18.89726  1        7
siesta:     33.82039  45.78560  18.89726  1        8
siesta:     36.15283  47.13223  18.89726  1        9
siesta:     36.15283   1.34664  18.89726  1       10
siesta:     33.82039   2.69327  18.89726  1       11
siesta:     33.82039   5.38654  18.89726  1       12
siesta:     36.15283   6.73318  18.89726  1       13
siesta:     36.15283   9.42645  18.89726  1       14
siesta:     33.82039  10.77308  18.89726  1       15
siesta:     33.82039  13.46635  18.89726  1       16
siesta:     36.15283  14.81299  18.89726  1       17
siesta:     36.15283  17.50626  18.89726  1       18
siesta:     33.81150  18.85445  18.89726  1       19
siesta:     33.83420  21.52507  18.89726  1       20
siesta:     36.09956  22.86526  18.89726  1       21
siesta:     36.09956  25.61361  18.89726  1       22
siesta:     33.83420  26.95380  18.89726  1       23
siesta:     33.81150  29.62442  18.89726  1       24
siesta:     31.51647  30.96915  18.89726  1       25
siesta:     36.15283  30.97261  18.89726  1       26
siesta:     31.51647  17.50972  18.89726  1       27
siesta:     29.10947  13.49790  18.89726  1       28
siesta:     24.49063  45.78560  18.89726  1       29
siesta:     26.82307  47.13223  18.89726  1       30
siesta:     26.82307   1.34664  18.89726  1       31
siesta:     24.49063   5.38654  18.89726  1       32
siesta:     26.82307   6.73318  18.89726  1       33
siesta:     26.82307   9.42645  18.89726  1       34
siesta:     24.49063  10.77308  18.89726  1       35
siesta:     24.49063  13.47948  18.89726  1       36
siesta:     26.80854  14.79359  18.89726  1       37
siesta:     26.80854  33.68528  18.89726  1       38
siesta:     24.49063  34.99938  18.89726  1       39
siesta:     24.49063  37.70579  18.89726  1       40
siesta:     26.82307  39.05242  18.89726  1       41
siesta:     26.82307  41.74569  18.89726  1       42
siesta:     24.49063  43.09233  18.89726  1       43
siesta:     29.15551  45.78560  18.89726  1       44
siesta:     31.48795  47.13223  18.89726  1       45
siesta:     31.48795   1.34664  18.89726  1       46
siesta:     29.15551   2.69327  18.89726  1       47
siesta:     29.15551   5.38654  18.89726  1       48
siesta:     31.48795   6.73318  18.89726  1       49
siesta:     31.48795   9.42645  18.89726  1       50
siesta:     29.15551  10.77308  18.89726  1       51
siesta:     31.48638  14.86535  18.89726  1       52
siesta:     36.15283  33.66588  18.89726  1       53
siesta:     33.82039  35.01252  18.89726  1       54
siesta:     33.82039  37.70579  18.89726  1       55
siesta:     45.48259  47.13223  18.89726  1       56
siesta:     45.48259   1.34664  18.89726  1       57
siesta:     43.15015   2.69327  18.89726  1       58
siesta:     43.15015   5.38654  18.89726  1       59
siesta:     45.48259   6.73318  18.89726  1       60
siesta:     45.48259   9.42645  18.89726  1       61
siesta:     43.15015  10.77308  18.89726  1       62
siesta:     43.15015  13.46635  18.89726  1       63
siesta:     45.48259  14.81299  18.89726  1       64
siesta:     45.48259  17.50626  18.89726  1       65
siesta:     43.15015  18.85289  18.89726  1       66
siesta:     43.15015  21.54616  18.89726  1       67
siesta:     45.48259  22.89280  18.89726  1       68
siesta:     45.48259  25.58607  18.89726  1       69
siesta:     43.15015  26.93270  18.89726  1       70
siesta:     43.15015  29.62597  18.89726  1       71
siesta:     45.48259  30.97261  18.89726  1       72
siesta:     45.48259  33.66588  18.89726  1       73
siesta:     43.15015  35.01252  18.89726  1       74
siesta:     43.15015  37.70579  18.89726  1       75
siesta:     45.48259  39.05242  18.89726  1       76
siesta:     45.48259  41.74569  18.89726  1       77
siesta:     43.15015  43.09233  18.89726  1       78
siesta:     43.15015  45.78560  18.89726  1       79
siesta:     38.48527  43.09233  18.89726  1       80
siesta:     40.81771  41.74569  18.89726  1       81
siesta:     40.81771  39.05242  18.89726  1       82
siesta:     36.15283  39.05242  18.89726  1       83
siesta:     36.15283  41.74569  18.89726  1       84
siesta:     33.82039  43.09233  18.89726  1       85
siesta:     38.48527  45.78560  18.89726  1       86
siesta:     40.81771  47.13223  18.89726  1       87
siesta:     40.81771   1.34664  18.89726  1       88
siesta:     38.48527   2.69327  18.89726  1       89
siesta:     38.48527   5.38654  18.89726  1       90
siesta:     40.81771   6.73318  18.89726  1       91
siesta:     40.81771   9.42645  18.89726  1       92
siesta:     38.48527  10.77308  18.89726  1       93
siesta:     19.82574  43.09233  18.89726  1       94
siesta:     38.48527  13.46635  18.89726  1       95
siesta:     40.81771  17.50626  18.89726  1       96
siesta:     38.48527  18.85289  18.89726  1       97
siesta:     38.48527  21.54616  18.89726  1       98
siesta:     40.81771  22.89280  18.89726  1       99
siesta:     40.81771  25.58607  18.89726  1      100
siesta:     38.48527  26.93270  18.89726  1      101
siesta:     38.48527  29.62597  18.89726  1      102
siesta:     40.81771  30.97261  18.89726  1      103
siesta:     40.81771  33.66588  18.89726  1      104
siesta:     38.48527  35.01252  18.89726  1      105
siesta:     38.48527  37.70579  18.89726  1      106
siesta:     40.81771  14.81299  18.89726  1      107
siesta:     22.15819  41.74569  18.89726  1      108
siesta:     24.49063   2.69327  18.89726  1      109
siesta:     19.82574  37.70579  18.89726  1      110
siesta:      8.16354   6.73318  18.89726  1      111
siesta:      8.16354   9.42645  18.89726  1      112
siesta:      5.83110  10.77308  18.89726  1      113
siesta:      5.83110  13.46635  18.89726  1      114
siesta:      8.16354  14.81299  18.89726  1      115
siesta:      8.16354  17.50626  18.89726  1      116
siesta:      5.83110  18.85289  18.89726  1      117
siesta:      5.83110  21.54616  18.89726  1      118
siesta:      8.16354  22.89280  18.89726  1      119
siesta:      8.16354  25.58607  18.89726  1      120
siesta:      5.83110  26.93270  18.89726  1      121
siesta:      5.83110  29.62597  18.89726  1      122
siesta:      8.16354  30.97261  18.89726  1      123
siesta:      8.16354  33.66588  18.89726  1      124
siesta:      5.83110  35.01252  18.89726  1      125
siesta:      5.83110  37.70579  18.89726  1      126
siesta:      8.16354  39.05242  18.89726  1      127
siesta:      8.16354  41.74569  18.89726  1      128
siesta:      5.83110  43.09233  18.89726  1      129
siesta:     22.15819  39.05242  18.89726  1      130
siesta:     12.82842  47.13223  18.89726  1      131
siesta:     12.82842   1.34664  18.89726  1      132
siesta:     10.49598   2.69327  18.89726  1      133
siesta:      5.83110   5.38654  18.89726  1      134
siesta:      5.83110   2.69327  18.89726  1      135
siesta:      8.16354   1.34664  18.89726  1      136
siesta:      8.16354  47.13223  18.89726  1      137
siesta:      3.49866  47.13223  18.89726  1      138
siesta:      3.49866   1.34664  18.89726  1      139
siesta:      1.16622   2.69327  18.89726  1      140
siesta:      1.16622   5.38654  18.89726  1      141
siesta:      3.49866   6.73318  18.89726  1      142
siesta:      3.49866   9.42645  18.89726  1      143
siesta:      1.16622  10.77308  18.89726  1      144
siesta:      1.16622  13.46635  18.89726  1      145
siesta:      3.49866  14.81299  18.89726  1      146
siesta:      3.49866  17.50626  18.89726  1      147
siesta:      1.16622  18.85289  18.89726  1      148
siesta:     10.49598   5.38654  18.89726  1      149
siesta:      1.16622  21.54616  18.89726  1      150
siesta:      3.49866  25.58607  18.89726  1      151
siesta:      1.16622  26.93270  18.89726  1      152
siesta:      1.16622  29.62597  18.89726  1      153
siesta:      3.49866  30.97261  18.89726  1      154
siesta:      3.49866  33.66588  18.89726  1      155
siesta:      1.16622  35.01252  18.89726  1      156
siesta:      1.16622  37.70579  18.89726  1      157
siesta:      3.49866  39.05242  18.89726  1      158
siesta:      3.49866  41.74569  18.89726  1      159
siesta:      1.16622  43.09233  18.89726  1      160
siesta:      5.83110  45.78560  18.89726  1      161
siesta:      3.49866  22.89280  18.89726  1      162
siesta:     12.82842   6.73318  18.89726  1      163
siesta:     10.49598  45.78560  18.89726  1      164
siesta:     10.49598  10.77308  18.89726  1      165
siesta:     15.16975  18.85445  18.89726  1      166
siesta:     15.14705  21.52507  18.89726  1      167
siesta:     15.14705  26.95380  18.89726  1      168
siesta:     12.82842   9.42645  18.89726  1      169
siesta:     17.46478  30.96915  18.89726  1      170
siesta:     17.49487  33.61352  18.89726  1      171
siesta:     15.16086  35.01252  18.89726  1      172
siesta:     15.16086  37.70579  18.89726  1      173
siesta:     17.49330  39.05242  18.89726  1      174
siesta:     17.49330  41.74569  18.89726  1      175
siesta:     15.16086  43.09233  18.89726  1      176
siesta:     19.82574  45.78560  18.89726  1      177
siesta:     22.15819  47.13223  18.89726  1      178
siesta:     22.15819   1.34664  18.89726  1      179
siesta:     19.82574   2.69327  18.89726  1      180
siesta:     19.82574   5.38654  18.89726  1      181
siesta:     22.15819   6.73318  18.89726  1      182
siesta:     22.15819   9.42645  18.89726  1      183
siesta:     19.82574  10.77308  18.89726  1      184
siesta:     19.87178  13.49790  18.89726  1      185
siesta:     22.17271  14.79359  18.89726  1      186
siesta:     22.17271  33.68528  18.89726  1      187
siesta:     19.87178  34.98097  18.89726  1      188
siesta:     17.46478  17.50972  18.89726  1      189
siesta:     17.49487  14.86535  18.89726  1      190
siesta:     15.16975  29.62442  18.89726  1      191
siesta:     15.16086  10.77308  18.89726  1      192
siesta:     10.49598  13.46635  18.89726  1      193
siesta:     12.82842  14.81299  18.89726  1      194
siesta:     12.82842  17.50626  18.89726  1      195
siesta:     10.49598  18.85289  18.89726  1      196
siesta:     10.49598  21.54616  18.89726  1      197
siesta:     15.16086  13.46635  18.89726  1      198
siesta:     12.88169  25.61361  18.89726  1      199
siesta:     10.49598  26.93270  18.89726  1      200
siesta:     10.49598  29.62597  18.89726  1      201
siesta:     12.82842  30.97261  18.89726  1      202
siesta:     12.82842  33.66588  18.89726  1      203
siesta:     12.88169  22.86526  18.89726  1      204
siesta:     10.49598  37.70579  18.89726  1      205
siesta:     10.49598  35.01252  18.89726  1      206
siesta:     17.49330   6.73318  18.89726  1      207
siesta:     15.16086   5.38654  18.89726  1      208
siesta:     15.16086   2.69327  18.89726  1      209
siesta:     17.49330   1.34664  18.89726  1      210
siesta:     17.49330   9.42645  18.89726  1      211
siesta:     15.16086  45.78560  18.89726  1      212
siesta:     10.49598  43.09233  18.89726  1      213
siesta:     12.82842  41.74569  18.89726  1      214
siesta:     12.82842  39.05242  18.89726  1      215
siesta:     17.49330  47.13223  18.89726  1      216
siesta:     29.75292  29.85660  18.89726  2      217
siesta:     29.75292  18.62227  18.89726  2      218
siesta:     26.72687  31.60156  18.89726  2      219
siesta:     26.72687  16.87730  18.89726  2      220
siesta:     22.25438  31.60156  18.89726  2      221
siesta:     19.22833  29.85660  18.89726  2      222
siesta:     16.99363  25.98467  18.89726  2      223
siesta:     16.99363  22.49420  18.89726  2      224
siesta:     19.22833  18.62227  18.89726  2      225
siesta:     31.98762  22.49420  18.89726  2      226
siesta:     22.25438  16.87730  18.89726  2      227
siesta:     31.98762  25.98467  18.89726  2      228
siesta:     23.79911  24.23164  27.73315  1      229
siesta:     22.32328  25.82051  29.71712  1      230
siesta:     23.21013  25.23990  25.07437  1      231
siesta:     21.08966  22.63562  30.56377  2      232
siesta:     25.84739  24.50437  28.15872  2      233
siesta:     24.43112  24.32667  23.62158  2      234
siesta:     21.18871  24.88019  24.58767  2      235
siesta:     23.52315  27.31883  25.04658  2      236
siesta:     22.35589  20.71157  26.38961  2      237
siesta:     24.68177  20.36022  28.51045  2      238
siesta:     23.08424  21.44791  28.08041  3      239
siesta:     20.80142  24.40978  31.21921  4      240
siesta:     22.52950  28.11865  29.85733  4      241

siesta: System type = slab      

initatomlists: Number of atoms, orbitals, and projectors:    241  2981  3723

siesta: ******************** Simulation parameters ****************************
siesta:
siesta: The following are some of the parameters of the simulation.
siesta: A complete list of the parameters used, including default values,
siesta: can be found in file out.fdf
siesta:
redata: Spin configuration                          = none
redata: Number of spin components                   = 1
redata: Time-Reversal Symmetry                      = T
redata: Spin spiral                                 = F
redata: Long output                                 =   F
redata: Number of Atomic Species                    =        4
redata: Charge density info will appear in .RHO file
redata: Write Mulliken charges (when)               = none
redata: Write Mulliken Pop.                         = NO
redata: Write Hirshfeld charges (when)              = none
redata: Write Voronoi charges (when)                = none
redata: Write spin charge (when)                    = none
redata: Matel table size (NRTAB)                    =     1024
redata: Mesh Cutoff                                 =   250.0000 Ry
redata: Net charge of the system                    =     0.0000 |e|
redata: Min. number of SCF Iter                     =        0
redata: Max. number of SCF Iter                     =     2000
redata: SCF convergence failure will abort job
redata: SCF mix quantity                            = Hamiltonian
redata: Mix DM or H after convergence               =   F
redata: Recompute H after scf cycle                 =   F
redata: Mix DM in first SCF step                    =   T
redata: Write Pulay info on disk                    =   F
redata: New DM Occupancy tolerance                  = 0.000000000001
redata: No kicks to SCF
redata: DM Mixing Weight for Kicks                  =     0.5000
redata: Require Harris convergence for SCF          =   F
redata: Harris energy tolerance for SCF             =     0.000100 eV
redata: Require DM convergence for SCF              =   T
redata: DM tolerance for SCF                        =     0.000010
redata: Require EDM convergence for SCF             =   F
redata: EDM tolerance for SCF                       =     0.001000 eV
redata: Require H convergence for SCF               =   T
redata: Hamiltonian tolerance for SCF               =     0.001000 eV
redata: Require (free) Energy convergence for SCF   =   F
redata: (free) Energy tolerance for SCF             =     0.000100 eV
redata: Using DFT-D3 dispersion                     =   F
redata: Using Saved Data (generic)                  =   F
redata: Use continuation files for DM               =   T
redata: Neglect nonoverlap interactions             =   F
redata: Method of Calculation                       = Diagonalization
redata: Electronic Temperature                      =   300.0000 K
redata: Fix the spin of the system                  =   F
redata: Max. number of TDED Iter                    =        1
redata: Number of TDED substeps                     =        3
redata: Dynamics option                             = Single-point calculation
mix.SCF: Pulay mixing                            = Pulay
mix.SCF:    Variant                              = stable
mix.SCF:    History steps                        = 20
mix.SCF:    Linear mixing weight                 =     0.010000
mix.SCF:    Mixing weight                        =     0.010000
mix.SCF:    SVD condition                        = 0.1000E-07
redata: Save all siesta data in one NC              =   F
redata: ***********************************************************************

%block SCF.Mixers
  Pulay
%endblock SCF.Mixers

%block SCF.Mixer.Pulay
  # Mixing method
  method pulay
  variant stable

  # Mixing options
  weight 0.0100
  weight.linear 0.0100
  history 20
%endblock SCF.Mixer.Pulay

DM_history_depth set to one: no extrapolation allowed by default for geometry relaxation
Size of DM history Fstack: 1
Total number of electrons:   912.000000
Total ionic charge:   912.000000

* ProcessorY, Blocksize:    8  46


* Orbital distribution balance (max,min):    83    46

 Kpoints in:            1 . Kpoints trimmed:            1

siesta: k-grid: Number of k-points = 1
siesta: k-points from Monkhorst-Pack grid
siesta: k-cutoff (effective) =    10.000 Ang
siesta: k-point supercell and displacements
siesta: k-grid:     1     0     0      0.000
siesta: k-grid:     0     1     0      0.000
siesta: k-grid:     0     0     1      0.000

diag: Algorithm                                     = D&C
diag: Parallel over k                               =   F
diag: Use parallel 2D distribution                  =   T
diag: Parallel block-size                           = 46
diag: Parallel distribution                         =     8 x     8
diag: Used triangular part                          = Lower
diag: Absolute tolerance                            =  0.100E-15
diag: Orthogonalization factor                      =  0.100E-05
diag: Memory factor                                 =  1.0000


ts: **************************************************************
ts: Save H and S matrices                           =    F
ts: Save DM and EDM matrices                        =    F
ts: Only save the overlap matrix S                  =    F
ts: **************************************************************

************************ Begin: TS CHECKS AND WARNINGS ************************
************************ End: TS CHECKS AND WARNINGS **************************


                     ====================================
                        Single-point calculation
                     ====================================

outcell: Unit cell vectors (Ang):
       24.685488    0.000000    0.000000
        0.000000   25.653912    0.000000
        0.000000    0.000000   20.000000

outcell: Cell vector modules (Ang)   :   24.685488   25.653912   20.000000
outcell: Cell angles (23,13,12) (deg):     90.0000     90.0000     90.0000
outcell: Cell volume (Ang**3)        :  12665.5865
<dSpData1D:S at geom step 0
  <sparsity:sparsity for geom step 0
    nrows_g=2981 nrows=83 sparsity=.0037 nnzs=32812, refcount: 7>
  <dData1D:(new from dSpData1D) n=32812, refcount: 1>
refcount: 1>
new_DM -- step:     1
Initializing Density Matrix...

Attempting to read DM from file... Failed...
DM filled with atomic data:
<dSpData2D:DM initialized from atoms
  <sparsity:sparsity for geom step 0
    nrows_g=2981 nrows=83 sparsity=.0037 nnzs=32812, refcount: 8>
  <dData2D:DM n=32812 m=1, refcount: 1>
refcount: 1>
No. of atoms with KB's overlaping orbs in proc 0. Max # of overlaps:      60     221

InitMesh: MESH = 240 x 250 x 192 = 11520000
InitMesh: Mesh cutoff (required, used) =   250.000   254.709 Ry
New grid distribution [1]: sub = 2
New grid distribution [2]: sub = 2
New grid distribution [3]: sub = 2
Setting up quadratic distribution...

stepf: Fermi-Dirac step function

siesta: Program's energy decomposition (eV):
siesta: Ebs     =    -11067.286222
siesta: Eions   =     55608.971781
siesta: Ena     =     10755.827333
siesta: Ekin    =     26343.944510
siesta: Enl     =     -4486.668895
siesta: Eso     =         0.000000
siesta: Edftu   =         0.000000
siesta: DEna    =     -1334.101491
siesta: DUscf   =       128.875080
siesta: DUext   =         0.000000
siesta: Ex      =    -10214.737653
siesta: Ec      =     -1237.335512
siesta: Exc     =    -11452.073165
siesta: EbV     =         0.000000
siesta: eta*DQ  =         0.000000
siesta: Emadel  =         0.000000
siesta: Emeta   =         0.000000
siesta: Emolmec =         0.000000
siesta: Ekinion =         0.000000
siesta: Eharris =    -35487.745439
siesta: Etot    =    -35653.168410
siesta: FreeEng =    -35653.168558

        iscf     Eharris(eV)        E_KS(eV)     FreeEng(eV)     dDmax    Ef(eV) dHmax(eV)
   scf:    1   -35487.745439   -35653.168410   -35653.168558  1.938355 -6.126737  8.812738
timer: Routine,Calls,Time,% = IterSCF        1       4.905  15.99
   scf:    2   -35654.763681   -35653.968027   -35653.968173  0.003822 -6.097211  8.575189
   scf:    3   -35677.570428   -35673.144339   -35673.144495  0.195365 -4.400226  6.772446
   scf:    4   -35676.313702   -35674.932421   -35674.932562  0.037361 -4.531451  3.894151
   scf:    5   -35677.397346   -35676.451455   -35676.451597  0.040259 -4.242421  2.183808
   scf:    6   -35677.377885   -35677.007951   -35677.008095  0.026446 -4.288588  0.688087
   scf:    7   -35677.161762   -35677.089712   -35677.089855  0.003982 -4.264369  0.497441
   scf:    8   -35677.185326   -35677.164875   -35677.165013  0.015727 -4.296282  0.308650
   scf:    9   -35677.204858   -35677.190042   -35677.190182  0.007107 -4.245573  0.134960
   scf:   10   -35677.182750   -35677.188896   -35677.189035  0.005773 -4.287304  0.154022
   scf:   11   -35677.201743   -35677.198180   -35677.198319  0.004815 -4.237807  0.124294
   scf:   12   -35677.198482   -35677.199602   -35677.199741  0.003368 -4.281425  0.074597
   scf:   13   -35677.193002   -35677.197850   -35677.197989  0.003810 -4.243859  0.090620
   scf:   14   -35677.203366   -35677.201008   -35677.201147  0.001643 -4.268071  0.031768
   scf:   15   -35677.201506   -35677.201282   -35677.201421  0.000682 -4.278270  0.021559
   scf:   16   -35677.201315   -35677.201299   -35677.201438  0.000190 -4.277830  0.017363
   scf:   17   -35677.201364   -35677.201335   -35677.201474  0.000170 -4.279796  0.007644
mix: Pulay -- inversion failed, > SVD [rank/size] 11 / 16
   scf:   18   -35677.201347   -35677.201343   -35677.201482  0.000196 -4.281229  0.002838
mix: Pulay -- inversion failed, > SVD [rank/size] 11 / 17
   scf:   19   -35677.201344   -35677.201343   -35677.201482  0.000002 -4.281237  0.002772
mix: Pulay -- inversion failed, > SVD [rank/size] 11 / 18
   scf:   20   -35677.201344   -35677.201344   -35677.201482  0.000001 -4.281244  0.002682
mix: Pulay -- inversion failed, > SVD [rank/size] 11 / 19
   scf:   21   -35677.201344   -35677.201344   -35677.201483  0.000001 -4.281251  0.002594
mix: Pulay -- inversion failed, > SVD [rank/size] 11 / 19
   scf:   22   -35677.201344   -35677.201344   -35677.201483  0.000001 -4.281258  0.002511
mix: Pulay -- inversion failed, > SVD [rank/size] 11 / 19
   scf:   23   -35677.201342   -35677.201343   -35677.201482  0.000036 -4.281436  0.002936
mix: Pulay -- inversion failed, > SVD [rank/size] 11 / 19
   scf:   24   -35677.201343   -35677.201343   -35677.201482  0.000005 -4.281459  0.002738
mix: Pulay -- inversion failed, > SVD [rank/size] 11 / 19
   scf:   25   -35677.201347   -35677.201345   -35677.201484  0.000043 -4.281589  0.001062
mix: Pulay -- inversion failed, > SVD [rank/size] 10 / 19
   scf:   26   -35677.201345   -35677.201345   -35677.201484  0.000006 -4.281608  0.000884

SCF Convergence by DM+H criterion
max |DM_out - DM_in|         :     0.0000063118
max |H_out - H_in|      (eV) :     0.0008839431
SCF cycle converged after 26 iterations

Using DM_out to compute the final energy and forces
No. of atoms with KB's overlaping orbs in proc 0. Max # of overlaps:      60     221

siesta: E_KS(eV) =           -35677.2013

siesta: E_KS - E_eggbox =    -35677.2013

siesta: Atomic forces (eV/Ang):
----------------------------------------
   Tot   -0.000102    0.005627   -0.002569
----------------------------------------
   Max    0.445055
   Res    0.092144    sqrt( Sum f_i^2 / 3N )
----------------------------------------
   Max    0.445055    constrained

Stress tensor Voigt[x,y,z,yz,xz,xy] (kbar):      -17.67      -19.64        0.06       -0.00        0.01        0.00
(Free)E + p*V (eV/cell)   -35579.0475
Target enthalpy (eV/cell)   -35677.2015

siesta: Program's energy decomposition (eV):
siesta: Ebs     =    -12161.608753
siesta: Eions   =     55608.971781
siesta: Ena     =     10755.827333
siesta: Ekin    =     25544.513464
siesta: Enl     =     -4239.189094
siesta: Eso     =         0.000000
siesta: Edftu   =         0.000000
siesta: DEna    =      -902.293235
siesta: DUscf   =        76.353258
siesta: DUext   =         0.000000
siesta: Ex      =    -10069.288941
siesta: Ec      =     -1234.152349
siesta: Exc     =    -11303.441290
siesta: EbV     =         0.000000
siesta: eta*DQ  =         0.000000
siesta: Emadel  =         0.000000
siesta: Emeta   =         0.000000
siesta: Emolmec =         0.000000
siesta: Ekinion =         0.000000
siesta: Eharris =    -35677.201345
siesta: Etot    =    -35677.201345
siesta: FreeEng =    -35677.201484

siesta: Final energy (eV):
siesta:  Band Struct. =  -12161.608753
siesta:       Kinetic =   25544.513464
siesta:       Hartree =  163768.835567
siesta:         Edftu =       0.000000
siesta:       Eso     =       0.000000
siesta:    Ext. field =       0.000000
siesta:         Exch. =  -10069.288941
siesta:         Corr. =   -1234.152349
siesta:     Bulk bias =       0.000000
siesta:   Exch.-corr. =  -11303.441290
siesta:  Ion-electron = -350892.594737
siesta:       Ion-ion =  137205.485651
siesta:       Ekinion =       0.000000
siesta: D3 dispersion =       0.000000
siesta:         Total =  -35677.201345
siesta:         Fermi =      -4.281608

siesta: Atomic forces (eV/Ang):
siesta:      1   -0.000037    0.118399    0.000001
siesta:      2    0.002761    0.005516    0.000542
siesta:      3   -0.001475   -0.004902    0.000598
siesta:      4   -0.201733   -0.243905    0.000030
siesta:      5   -0.144053   -0.105858   -0.000046
siesta:      6    0.025399    0.010732   -0.000003
siesta:      7   -0.100018   -0.093736    0.000005
siesta:      8    0.011893    0.118885    0.000005
siesta:      9   -0.035567   -0.076258   -0.000002
siesta:     10   -0.035387    0.075505    0.000002
siesta:     11    0.011052   -0.119032    0.000005
siesta:     12    0.018074    0.116990    0.000007
siesta:     13   -0.020280   -0.109695   -0.000000
siesta:     14   -0.162912    0.126083    0.000037
siesta:     15    0.110536   -0.037059   -0.000021
siesta:     16   -0.135104    0.439946   -0.000257
siesta:     17   -0.197085    0.040315   -0.000035
siesta:     18    0.231557   -0.132678   -0.000532
siesta:     19   -0.004611    0.002729    0.000148
siesta:     20   -0.001864   -0.006285    0.003816
siesta:     21   -0.003342   -0.000655    0.000668
siesta:     22    0.000553    0.004858    0.000374
siesta:     23   -0.000963    0.005152    0.002500
siesta:     24   -0.004142    0.007023    0.000258
siesta:     25    0.003772   -0.000221    0.001485
siesta:     26    0.232196    0.129617   -0.000200
siesta:     27    0.007397   -0.003446    0.005341
siesta:     28    0.005356    0.004718    0.001190
siesta:     29   -0.000018    0.112464   -0.000025
siesta:     30    0.002323   -0.104970    0.000008
siesta:     31    0.003059    0.104439    0.000000
siesta:     32   -0.000033    0.118229   -0.000023
siesta:     33    0.029053   -0.235660    0.000158
siesta:     34    0.013504    0.237671   -0.000040
siesta:     35   -0.000330   -0.283081   -0.000946
siesta:     36    0.001663    0.012297    0.000580
siesta:     37    0.002755   -0.009682    0.007600
siesta:     38    0.004293    0.005977    0.001570
siesta:     39   -0.001364   -0.003653    0.001796
siesta:     40    0.000058    0.281475   -0.000541
siesta:     41    0.011711   -0.238892    0.000093
siesta:     42    0.030686    0.234224    0.000073
siesta:     43   -0.000241   -0.117502    0.000011
siesta:     44   -0.013823    0.096449   -0.000001
siesta:     45    0.004117   -0.085783   -0.000001
siesta:     46    0.004546    0.085532   -0.000001
siesta:     47   -0.013688   -0.097265    0.000003
siesta:     48   -0.098879    0.092647   -0.000010
siesta:     49    0.025709   -0.010252    0.000025
siesta:     50   -0.141310    0.104983    0.000006
siesta:     51   -0.198545    0.243602   -0.000424
siesta:     52    0.005186   -0.006571    0.000676
siesta:     53   -0.197175   -0.039187    0.000030
siesta:     54   -0.133423   -0.443979   -0.000074
siesta:     55    0.111305    0.038085    0.000016
siesta:     56    0.022662   -0.077419   -0.000001
siesta:     57    0.022414    0.076974    0.000002
siesta:     58   -0.021586   -0.076595   -0.000001
siesta:     59   -0.064928    0.074983    0.000003
siesta:     60    0.041468   -0.041226   -0.000002
siesta:     61    0.054204    0.039844    0.000004
siesta:     62   -0.055344   -0.044649   -0.000002
siesta:     63   -0.012518    0.038446   -0.000008
siesta:     64    0.032150   -0.064467   -0.000001
siesta:     65    0.119089    0.058025   -0.000003
siesta:     66   -0.172691   -0.165662   -0.000001
siesta:     67   -0.193767    0.146701    0.000014
siesta:     68    0.116756   -0.052901    0.000009
siesta:     69    0.115126    0.052524   -0.000003
siesta:     70   -0.195287   -0.148128    0.000019
siesta:     71   -0.171184    0.166985   -0.000007
siesta:     72    0.119915   -0.060218    0.000001
siesta:     73    0.030776    0.065353    0.000000
siesta:     74   -0.012691   -0.040104   -0.000006
siesta:     75   -0.054742    0.045357    0.000003
siesta:     76    0.054323   -0.041016   -0.000002
siesta:     77    0.040849    0.041811    0.000002
siesta:     78   -0.064878   -0.076003   -0.000002
siesta:     79   -0.021384    0.076548    0.000002
siesta:     80   -0.006729   -0.071891   -0.000002
siesta:     81    0.036796    0.125717    0.000002
siesta:     82    0.018473   -0.121067   -0.000004
siesta:     83   -0.162828   -0.127543   -0.000006
siesta:     84   -0.020251    0.109681    0.000008
siesta:     85    0.017488   -0.118270   -0.000003
siesta:     86    0.025905    0.069844    0.000002
siesta:     87    0.000374   -0.114627   -0.000002
siesta:     88    0.000570    0.114425    0.000001
siesta:     89    0.026229   -0.069719   -0.000001
siesta:     90   -0.006503    0.071187    0.000007
siesta:     91    0.036610   -0.124665   -0.000003
siesta:     92    0.018485    0.119957    0.000001
siesta:     93    0.078287    0.046328   -0.000012
siesta:     94    0.099747   -0.093729    0.000022
siesta:     95    0.203811   -0.057362    0.000112
siesta:     96    0.225033    0.103258    0.000080
siesta:     97   -0.117014    0.072484   -0.000014
siesta:     98   -0.237987    0.005650   -0.000281
siesta:     99   -0.089432   -0.427014   -0.000003
siesta:    100   -0.089347    0.431413   -0.000020
siesta:    101   -0.237307   -0.008241   -0.000140
siesta:    102   -0.119862   -0.071237    0.000005
siesta:    103    0.226055   -0.104399    0.000057
siesta:    104   -0.048256    0.145539   -0.000004
siesta:    105    0.203241    0.055667    0.000030
siesta:    106    0.076944   -0.045586    0.000009
siesta:    107   -0.048118   -0.142757   -0.000015
siesta:    108   -0.030615    0.233649    0.000097
siesta:    109   -0.000027   -0.112844   -0.000014
siesta:    110    0.202625   -0.244750   -0.000140
siesta:    111   -0.036581   -0.124459   -0.000006
siesta:    112   -0.018434    0.119822   -0.000002
siesta:    113    0.055527   -0.044264    0.000002
siesta:    114    0.012645    0.038224   -0.000029
siesta:    115    0.048237   -0.142195   -0.000022
siesta:    116   -0.224813    0.102998    0.000212
siesta:    117    0.173073   -0.165247    0.000003
siesta:    118    0.194154    0.146242    0.000020
siesta:    119    0.089595   -0.425946   -0.000076
siesta:    120    0.089607    0.431547   -0.000163
siesta:    121    0.195738   -0.147770    0.000036
siesta:    122    0.171638    0.166917   -0.000013
siesta:    123   -0.225883   -0.104774    0.000238
siesta:    124    0.048081    0.145423   -0.000002
siesta:    125    0.013335   -0.039916   -0.000039
siesta:    126    0.054721    0.045113    0.000011
siesta:    127   -0.018324   -0.121293   -0.000009
siesta:    128   -0.036934    0.125222    0.000001
siesta:    129    0.065145   -0.075724   -0.000004
siesta:    130   -0.012655   -0.238735    0.000200
siesta:    131    0.035644   -0.075937    0.000000
siesta:    132    0.035454    0.075184    0.000002
siesta:    133   -0.026143   -0.069541   -0.000001
siesta:    134    0.065014    0.074819    0.000003
siesta:    135    0.021734   -0.076383   -0.000000
siesta:    136   -0.000632    0.114202    0.000000
siesta:    137   -0.000332   -0.114500   -0.000002
siesta:    138   -0.022442   -0.077443   -0.000002
siesta:    139   -0.022401    0.076959    0.000002
siesta:    140    0.000011   -0.117874   -0.000002
siesta:    141    0.000007    0.113823    0.000001
siesta:    142   -0.041359   -0.041234   -0.000002
siesta:    143   -0.054133    0.039840    0.000006
siesta:    144    0.000006   -0.130637   -0.000003
siesta:    145    0.000085    0.121671    0.000009
siesta:    146   -0.032004   -0.064463    0.000004
siesta:    147   -0.118685    0.058020   -0.000016
siesta:    148    0.000050   -0.270516    0.000001
siesta:    149    0.006436    0.071064    0.000010
siesta:    150    0.000034    0.268274    0.000011
siesta:    151   -0.114283    0.052624    0.000018
siesta:    152   -0.000068   -0.267041    0.000018
siesta:    153    0.000006    0.274421   -0.000005
siesta:    154   -0.119090   -0.060462   -0.000019
siesta:    155   -0.030642    0.065426    0.000010
siesta:    156    0.000090   -0.122614    0.000008
siesta:    157   -0.000138    0.132502    0.000001
siesta:    158   -0.053676   -0.041204    0.000001
siesta:    159   -0.040936    0.041734    0.000003
siesta:    160    0.000023   -0.114470   -0.000002
siesta:    161    0.021431    0.076311    0.000003
siesta:    162   -0.116389   -0.052804    0.000028
siesta:    163    0.020443   -0.109336    0.000008
siesta:    164   -0.025972    0.069590    0.000003
siesta:    165   -0.078188    0.046608   -0.000014
siesta:    166    0.005732    0.005737    0.001383
siesta:    167   -0.001276   -0.008505    0.007556
siesta:    168   -0.002533    0.007736    0.006761
siesta:    169    0.162929    0.125923    0.000044
siesta:    170   -0.004591    0.000644    0.002662
siesta:    171   -0.003189    0.004463    0.001633
siesta:    172    0.133198   -0.445055   -0.000017
siesta:    173   -0.111563    0.036636   -0.000039
siesta:    174    0.143918   -0.105916   -0.000044
siesta:    175   -0.025438    0.010324    0.000000
siesta:    176   -0.017580   -0.118185    0.000007
siesta:    177    0.013959    0.096201   -0.000017
siesta:    178   -0.002535   -0.104891    0.000013
siesta:    179   -0.003036    0.104276    0.000002
siesta:    180    0.013622   -0.097125   -0.000008
siesta:    181    0.098817    0.092636   -0.000012
siesta:    182   -0.029177   -0.235745    0.000217
siesta:    183   -0.013297    0.237643   -0.000013
siesta:    184    0.198364    0.243314   -0.000568
siesta:    185   -0.006586    0.004670    0.001760
siesta:    186   -0.002586   -0.011796    0.010249
siesta:    187   -0.004752    0.006367    0.002264
siesta:    188    0.000567   -0.006078    0.001462
siesta:    189   -0.010790   -0.004760    0.009897
siesta:    190   -0.004254   -0.007961    0.001707
siesta:    191    0.005552    0.008310    0.002694
siesta:    192   -0.110120   -0.036906   -0.000077
siesta:    193   -0.204037   -0.057542    0.000221
siesta:    194    0.197523    0.041298    0.000016
siesta:    195   -0.232279   -0.133582   -0.001228
siesta:    196    0.117242    0.072994    0.000099
siesta:    197    0.238914    0.004922   -0.000614
siesta:    198    0.134874    0.439645   -0.000438
siesta:    199   -0.000925    0.004039    0.002074
siesta:    200    0.238403   -0.007643   -0.000466
siesta:    201    0.120861   -0.070906    0.000202
siesta:    202   -0.232168    0.129656   -0.001040
siesta:    203    0.197707   -0.039856    0.000189
siesta:    204    0.003913    0.001956    0.002414
siesta:    205   -0.076935   -0.046041    0.000031
siesta:    206   -0.202181    0.055347    0.000109
siesta:    207   -0.025723   -0.010119    0.000044
siesta:    208   -0.018145    0.116812    0.000008
siesta:    209   -0.011076   -0.118826    0.000007
siesta:    210   -0.004703    0.085399   -0.000002
siesta:    211    0.140795    0.105054   -0.000013
siesta:    212   -0.012028    0.118335    0.000005
siesta:    213    0.007085   -0.071692    0.000002
siesta:    214    0.020494    0.108934    0.000018
siesta:    215    0.162878   -0.127269   -0.000028
siesta:    216   -0.004143   -0.085675    0.000004
siesta:    217   -0.004579   -0.003852    0.000533
siesta:    218   -0.004568    0.006356   -0.004686
siesta:    219   -0.003260   -0.005377    0.002956
siesta:    220   -0.000050    0.007385   -0.005458
siesta:    221    0.002199   -0.007259    0.004117
siesta:    222    0.007453   -0.007828    0.004760
siesta:    223    0.008133   -0.002167   -0.000333
siesta:    224    0.006029    0.006351   -0.001149
siesta:    225    0.008587    0.010808   -0.004692
siesta:    226    0.000535    0.003343   -0.002900
siesta:    227    0.001223    0.009981   -0.006193
siesta:    228   -0.000388   -0.000674   -0.001780
siesta:    229    0.005227   -0.028631    0.013467
siesta:    230   -0.041569    0.017088    0.028268
siesta:    231    0.004665    0.010510   -0.001805
siesta:    232   -0.010786   -0.005368    0.019155
siesta:    233   -0.003705    0.001726   -0.001389
siesta:    234    0.021209   -0.015961   -0.018919
siesta:    235   -0.042330   -0.001963   -0.018612
siesta:    236    0.002396    0.035995   -0.006474
siesta:    237   -0.018511   -0.019814   -0.005236
siesta:    238    0.011985   -0.011387    0.001367
siesta:    239    0.008466    0.018389   -0.025778
siesta:    240    0.030982    0.010419   -0.027592
siesta:    241    0.009792   -0.006031   -0.022033
siesta: ----------------------------------------
siesta:    Tot   -0.000102    0.005627   -0.002569

siesta: Stress tensor (static) (eV/Ang**3):
siesta:    -0.011029    0.000002    0.000005
siesta:     0.000002   -0.012260   -0.000000
siesta:     0.000005   -0.000000    0.000040

siesta: Cell volume =      12665.586541 Ang**3

siesta: Pressure (static):
siesta:                Solid            Molecule  Units
siesta:           0.00008440          0.00009444  Ry/Bohr**3
siesta:           0.00774966          0.00867111  eV/Ang**3
siesta:          12.41631858         13.89264583  kBar
(Free)E+ p_basis*V_orbitals  =      -35578.070184
(Free)Eharris+ p_basis*V_orbitals  =      -35578.070184

siesta: Electric dipole (a.u.)  =    0.000000    0.000000   -0.984407
siesta: Electric dipole (Debye) =    0.000000    0.000000   -2.502113

cite: Please indicate the Siesta version in published work: unreleased 21e88d34b (2025-02-04)
cite: This calculation has made use of features in the following articles
cite: which we encourage you to cite in published work.
cite: (Please see "siesta.bib" for a BibTeX file.)
        Primary SIESTA paper
          DOI: www.doi.org/10.1088/0953-8984/14/11/302


>> End of run:  22-DEC-2025  15:41:13
Job completed
