Executable      : /opt/software/pc2/Siesta/5.2.2/siesta-5.2.2-mpi/build/Src/siesta
Version         : unreleased 21e88d34b (2025-02-04)
Architecture    : x86_64
Compiler version: GNU-13.2.0
Compiler flags  : -O3 -march=native -lscalapack -fallow-argument-mismatch -O3 -march=native
Parallelisations: MPI
NetCDF support
NetCDF-4 support
NetCDF-4 MPI-IO support
Lua support
Native ELPA support
ELSI support. Solvers:
   ELPA (external) 
   NTPoly
   OMM
DFT-D3 support

Runtime information:
* Directory : /scratch/hpc-prf-meop/Projects/2DMaterNanopore/DFT+NEGF+ML/DFT/GRAPHENE_NANOPORE_BIOMOL_ALA/SGLPT_THETA_330_PHI_030_PSI_210
* Running on 64 nodes in parallel.
>> Start of run:  22-DEC-2025  16:25:46

                           *********************** 
                           *  WELCOME TO SIESTA  * 
                           *********************** 

 NOTE: Siesta V5 introduces some new defaults for basis-set generation
 NOTE: which might lead to slightly different numerical results.
 NOTE: Please see the manual for full details and compatibility measures.


reinit: Reading from standard input
reinit: Dumping input in INPUT_TMP.31612
************************** Dump of input data file ****************************
SystemLabel	siesta
NumberOfSpecies	4
NumberOfAtoms	241
%block ChemicalSpecieslabel
    1 6 C
    2 1 H
    3 7 N
    4 8 O
%endblock ChemicalSpecieslabel
LatticeConstant	1.0 Ang
%block LatticeVectors
    24.685487983260018     0.000000000000000     0.000000000000000
    0.000000000000000     25.653911637872664     0.000000000000000
    0.000000000000000     0.000000000000000     19.999999987438091
%endblock LatticeVectors
AtomicCoordinatesFormat  Ang
%block AtomicCoordinatesAndAtomicSpecies
     0.617137199     24.228694325      9.999999993 1
    16.661877175     17.787507251      9.999999999 1
    15.404068592     18.511132114      9.999999994 1
    15.428429989     19.953042385      9.999999993 1
    16.662704388     20.665651042      9.999999993 1
    16.662704388     22.090868355      9.999999993 1
    15.428429989     22.803477011      9.999999993 1
    17.896978787     24.228694325      9.999999993 1
    19.131253187     24.941302981      9.999999993 1
    19.131253187      0.712608657      9.999999993 1
    17.896978787      1.425217313      9.999999993 1
    17.896978787      2.850434626      9.999999993 1
    19.131253187      3.563043283      9.999999993 1
    19.131253187      4.988260596      9.999999993 1
    17.896978787      5.700869253      9.999999993 1
    17.896978787      7.126086567      9.999999993 1
    19.131253187      7.838695223      9.999999993 1
    19.131253187      9.263912536      9.999999993 1
    17.892274080      9.977343270     10.000000008 1
    17.904289481     11.390574713      9.999999998 1
    19.103064970     12.099774496      9.999999989 1
    19.103064968     13.554137138      9.999999988 1
    17.904289479     14.263336921      9.999999996 1
    17.892274081     15.676568367     10.000000006 1
    16.677796396     16.388168018     10.000000006 1
    19.131253187     16.389999102      9.999999993 1
    16.677796396      9.265743615     10.000000009 1
    15.404068591      7.142779522      9.999999986 1
    12.959881192     24.228694325      9.999999993 1
    14.194155590     24.941302981      9.999999993 1
    14.194155590      0.712608657      9.999999993 1
    12.959881192      2.850434626      9.999999993 1
    14.194155590      3.563043283      9.999999993 1
    14.194155590      4.988260596      9.999999993 1
    12.959881192      5.700869253      9.999999993 1
    12.959881187      7.133036192      9.999999994 1
    14.186467353      7.828429446      9.999999983 1
    14.186467358     17.825482185      9.999999998 1
    12.959881191     18.520875446      9.999999986 1
    12.959881192     19.953042385      9.999999993 1
    14.194155590     20.665651042      9.999999993 1
    14.194155590     22.090868355      9.999999993 1
    12.959881192     22.803477011      9.999999993 1
    15.428429989     24.228694325      9.999999993 1
    16.662704388     24.941302981      9.999999993 1
    16.662704388      0.712608657      9.999999993 1
    15.428429989      1.425217313      9.999999993 1
    15.428429989      2.850434626      9.999999993 1
    16.662704388      3.563043283      9.999999993 1
    16.662704388      4.988260596      9.999999993 1
    15.428429989      5.700869253      9.999999993 1
    16.661877175      7.866404380      9.999999988 1
    19.131253187     17.815216416      9.999999993 1
    17.896978787     18.527825072      9.999999993 1
    17.896978787     19.953042385      9.999999993 1
    24.068350784     24.941302981      9.999999993 1
    24.068350784      0.712608657      9.999999993 1
    22.834076384      1.425217313      9.999999993 1
    22.834076384      2.850434626      9.999999993 1
    24.068350784      3.563043283      9.999999993 1
    24.068350784      4.988260596      9.999999993 1
    22.834076384      5.700869253      9.999999993 1
    22.834076384      7.126086567      9.999999993 1
    24.068350784      7.838695223      9.999999993 1
    24.068350784      9.263912536      9.999999993 1
    22.834076384      9.976521193      9.999999993 1
    22.834076384     11.401738506      9.999999993 1
    24.068350784     12.114347162      9.999999993 1
    24.068350784     13.539564475      9.999999993 1
    22.834076384     14.252173132      9.999999993 1
    22.834076384     15.677390445      9.999999993 1
    24.068350784     16.389999102      9.999999993 1
    24.068350784     17.815216416      9.999999993 1
    22.834076384     18.527825072      9.999999993 1
    22.834076384     19.953042385      9.999999993 1
    24.068350784     20.665651042      9.999999993 1
    24.068350784     22.090868355      9.999999993 1
    22.834076384     22.803477011      9.999999993 1
    22.834076384     24.228694325      9.999999993 1
    20.365527586     22.803477011      9.999999993 1
    21.599801985     22.090868355      9.999999993 1
    21.599801985     20.665651042      9.999999993 1
    19.131253187     20.665651042      9.999999993 1
    19.131253187     22.090868355      9.999999993 1
    17.896978787     22.803477011      9.999999993 1
    20.365527586     24.228694325      9.999999993 1
    21.599801985     24.941302981      9.999999993 1
    21.599801985      0.712608657      9.999999993 1
    20.365527586      1.425217313      9.999999993 1
    20.365527586      2.850434626      9.999999993 1
    21.599801985      3.563043283      9.999999993 1
    21.599801985      4.988260596      9.999999993 1
    20.365527586      5.700869253      9.999999993 1
    10.491332393     22.803477011      9.999999993 1
    20.365527586      7.126086567      9.999999993 1
    21.599801985      9.263912536      9.999999993 1
    20.365527586      9.976521193      9.999999993 1
    20.365527586     11.401738506      9.999999993 1
    21.599801985     12.114347162      9.999999993 1
    21.599801985     13.539564475      9.999999993 1
    20.365527586     14.252173132      9.999999993 1
    20.365527586     15.677390445      9.999999993 1
    21.599801985     16.389999102      9.999999993 1
    21.599801985     17.815216416      9.999999993 1
    20.365527586     18.527825072      9.999999993 1
    20.365527586     19.953042385      9.999999993 1
    21.599801985      7.838695223      9.999999993 1
    11.725606792     22.090868355      9.999999993 1
    12.959881192      1.425217313      9.999999993 1
    10.491332393     19.953042385      9.999999993 1
     4.319960397      3.563043283      9.999999993 1
     4.319960397      4.988260596      9.999999993 1
     3.085685998      5.700869253      9.999999993 1
     3.085685998      7.126086567      9.999999993 1
     4.319960397      7.838695223      9.999999993 1
     4.319960397      9.263912536      9.999999993 1
     3.085685998      9.976521193      9.999999993 1
     3.085685998     11.401738506      9.999999993 1
     4.319960397     12.114347162      9.999999993 1
     4.319960397     13.539564475      9.999999993 1
     3.085685998     14.252173132      9.999999993 1
     3.085685998     15.677390445      9.999999993 1
     4.319960397     16.389999102      9.999999993 1
     4.319960397     17.815216416      9.999999993 1
     3.085685998     18.527825072      9.999999993 1
     3.085685998     19.953042385      9.999999993 1
     4.319960397     20.665651042      9.999999993 1
     4.319960397     22.090868355      9.999999993 1
     3.085685998     22.803477011      9.999999993 1
    11.725606792     20.665651042      9.999999993 1
     6.788509196     24.941302981      9.999999993 1
     6.788509196      0.712608657      9.999999993 1
     5.554234797      1.425217313      9.999999993 1
     3.085685998      2.850434626      9.999999993 1
     3.085685998      1.425217313      9.999999993 1
     4.319960397      0.712608657      9.999999993 1
     4.319960397     24.941302981      9.999999993 1
     1.851411599     24.941302981      9.999999993 1
     1.851411599      0.712608657      9.999999993 1
     0.617137199      1.425217313      9.999999993 1
     0.617137199      2.850434626      9.999999993 1
     1.851411599      3.563043283      9.999999993 1
     1.851411599      4.988260596      9.999999993 1
     0.617137199      5.700869253      9.999999993 1
     0.617137199      7.126086567      9.999999993 1
     1.851411599      7.838695223      9.999999993 1
     1.851411599      9.263912536      9.999999993 1
     0.617137199      9.976521193      9.999999993 1
     5.554234797      2.850434626      9.999999993 1
     0.617137199     11.401738506      9.999999993 1
     1.851411599     13.539564475      9.999999993 1
     0.617137199     14.252173132      9.999999993 1
     0.617137199     15.677390445      9.999999993 1
     1.851411599     16.389999102      9.999999993 1
     1.851411599     17.815216416      9.999999993 1
     0.617137199     18.527825072      9.999999993 1
     0.617137199     19.953042385      9.999999993 1
     1.851411599     20.665651042      9.999999993 1
     1.851411599     22.090868355      9.999999993 1
     0.617137199     22.803477011      9.999999993 1
     3.085685998     24.228694325      9.999999993 1
     1.851411599     12.114347162      9.999999993 1
     6.788509196      3.563043283      9.999999993 1
     5.554234797     24.228694325      9.999999993 1
     5.554234797      5.700869253      9.999999993 1
     8.027488304      9.977343270      9.999999986 1
     8.015472905     11.390574713     10.000000004 1
     8.015472907     14.263336922     10.000000000 1
     6.788509196      4.988260596      9.999999993 1
     9.241965996     16.388168021     10.000000023 1
     9.257885205     17.787507251     10.000000006 1
     8.022783595     18.527825072      9.999999993 1
     8.022783595     19.953042385      9.999999993 1
     9.257057994     20.665651042      9.999999993 1
     9.257057994     22.090868355      9.999999993 1
     8.022783595     22.803477011      9.999999993 1
    10.491332393     24.228694325      9.999999993 1
    11.725606792     24.941302981      9.999999993 1
    11.725606792      0.712608657      9.999999993 1
    10.491332393      1.425217313      9.999999993 1
    10.491332393      2.850434626      9.999999993 1
    11.725606792      3.563043283      9.999999993 1
    11.725606792      4.988260596      9.999999993 1
    10.491332393      5.700869253      9.999999993 1
    10.515693795      7.142779522     10.000000027 1
    11.733295023      7.828429455     10.000000025 1
    11.733295023     17.825482186      9.999999992 1
    10.515693793     18.511132117      9.999999999 1
     9.241965990      9.265743609      9.999999987 1
     9.257885209      7.866404384     10.000000000 1
     8.027488313     15.676568366     10.000000023 1
     8.022783595      5.700869253      9.999999993 1
     5.554234797      7.126086567      9.999999993 1
     6.788509196      7.838695223      9.999999993 1
     6.788509196      9.263912536      9.999999993 1
     5.554234797      9.976521193      9.999999993 1
     5.554234797     11.401738506      9.999999993 1
     8.022783595      7.126086567      9.999999993 1
     6.816697412     13.554137139      9.999999981 1
     5.554234797     14.252173132      9.999999993 1
     5.554234797     15.677390445      9.999999993 1
     6.788509196     16.389999102      9.999999993 1
     6.788509196     17.815216416      9.999999993 1
     6.816697409     12.099774496      9.999999990 1
     5.554234797     19.953042385      9.999999993 1
     5.554234797     18.527825072      9.999999993 1
     9.257057994      3.563043283      9.999999993 1
     8.022783595      2.850434626      9.999999993 1
     8.022783595      1.425217313      9.999999993 1
     9.257057994      0.712608657      9.999999993 1
     9.257057994      4.988260596      9.999999993 1
     8.022783595     24.228694325      9.999999993 1
     5.554234797     22.803477011      9.999999993 1
     6.788509196     22.090868355      9.999999993 1
     6.788509196     20.665651042      9.999999993 1
     9.257057994     24.941302981      9.999999993 1
    15.744565851     15.799432360     10.000000001 2
    15.744565859      9.854479278      9.999999998 2
    14.143251523     16.722826843     10.000000023 2
    14.143251522      8.931084792      9.999999981 2
    11.776510846     16.722826837      9.999999998 2
    10.175196553     15.799432385     10.000000005 2
     8.992643581     13.750494156      9.999999994 2
     8.992643579     11.903417481      9.999999987 2
    10.175196533      9.854479269      9.999999992 2
    16.927118815     11.903417488     10.000000007 2
    11.776510861      8.931084796      9.999999995 2
    16.927118811     13.750494130      9.999999987 2
    12.445855303     13.087526824     14.625801163 1
    11.389690206     12.351479857     15.498640169 1
    12.374369843     12.551210441     13.187532272 1
    12.909311702     11.947101255     16.495926107 2
    12.165870988     14.168195109     14.638393255 2
    13.016362884     13.148855400     12.500000027 2
    12.706760989     11.485716529     13.155192288 2
    11.318764398     12.591783602     12.838271934 2
    14.484198534     12.453104145     14.591080429 2
    14.243948857     13.823504427     15.525572360 2
    13.821895056     12.898648991     15.272089359 3
    11.923049552     11.735247118     16.581907542 4
    10.201289449     12.334283134     15.209209753 4
%endblock AtomicCoordinatesAndAtomicSpecies
###K-Point Mesh###
%block kgrid_Monkhorst_Pack
1   0   0   0.0
0   1   0   0.0
0   0   1   0.0
%endblock kgrid_Monkhorst_Pack
###SCF PARAMS###
MeshCutoff          250 Ry
PAO.BasisType       split
PAO.BasisSize       DZP
PAO.EnergyShift     0.1 eV
XC.functional VDW
XC.authors KBM
MaxSCFIterations   2000
SCF.MustConverge    T
DM.MixingWeight    0.01
DM.NumberPulay     20
DM.Tolerance        1.d-5
DM.UseSaveDM        T
ElectronicTemperature 300 K
DirectPhi           T
###DIAGONALIZATION###
SolutionMethod      diagon
###DIAG-ALGORITHM###
# Diag.Algorithm ELPA
###CACHE WAVEFUNC###
# Diag.WFS.Cache cdf
###PARALLELIZATION###
Diag.ParallelOverK  F
###MOLECULAR DYNAMICS###
MD.TypeOfRun        CG
MD.NumCGsteps       0
MD.UseSaveXV        T
MD.UseSaveCG        T
************************** End of input data file *****************************

reinit: -----------------------------------------------------------------------
reinit: System Name: 
reinit: -----------------------------------------------------------------------
reinit: System Label: siesta
reinit: -----------------------------------------------------------------------

initatom: Reading input for the pseudopotentials and atomic orbitals ----------
Species number:   1 Atomic number:    6 Label: C
Species number:   2 Atomic number:    1 Label: H
Species number:   3 Atomic number:    7 Label: N
Species number:   4 Atomic number:    8 Label: O

Ground state valence configuration (from tables):   2s02  2p02  3d00  4f00
Ground state valence configuration (from tables):   1s01  2p00  3d00  4f00
Ground state valence configuration (from tables):   2s02  2p03  3d00  4f00
Ground state valence configuration (from tables):   2s02  2p04  3d00  4f00

---- Processing specs for species: C
Reading pseudopotential information in formatted form from:
  C.psf

---- Processing specs for species: H
Reading pseudopotential information in formatted form from:
  H.psf

---- Processing specs for species: N
Reading pseudopotential information in formatted form from:
  N.psf

---- Processing specs for species: O
Reading pseudopotential information in formatted form from:
  O.psf

---- Pseudopotential check for  C

Pseudopotential generated from a fully relativistic atomic calculation
There are spin-orbit semi-local pseudopotentials available

Pseudized shells:
2s( 2.00) rc: 1.01
2p( 2.00) rc: 1.28
3d( 0.00) rc: 1.60
4f( 0.00) rc: 1.60
Valence configuration for ps generation: (assumed as above)

---- Pseudopotential check for  H

Pseudopotential generated from a fully relativistic atomic calculation
There are spin-orbit semi-local pseudopotentials available

Pseudized shells:
1s( 1.00) rc: 1.31
2p( 0.00) rc: 1.13
3d( 0.00) rc: 1.09
4f( 0.00) rc: 1.14
Valence configuration for ps generation: (assumed as above)

---- Pseudopotential check for N 

Pseudopotential generated from a fully relativistic atomic calculation
There are spin-orbit semi-local pseudopotentials available

Pseudized shells:
2s( 2.00) rc: 1.29
2p( 3.00) rc: 1.42
3d( 0.00) rc: 1.74
4f( 0.00) rc: 2.98
Valence configuration for ps generation: (assumed as above)

---- Pseudopotential check for  O

Pseudopotential generated from a fully relativistic atomic calculation
There are spin-orbit semi-local pseudopotentials available

Pseudized shells:
2s( 2.00) rc: 0.77
2p( 4.00) rc: 1.77
3d( 0.00) rc: 1.07
4f( 0.00) rc: 1.66
Valence configuration for ps generation: (assumed as above)
For C, standard SIESTA heuristics set lmxkb to 3
 (one more than the basis l, including polarization orbitals).
Use PS.lmax or PS.KBprojectors blocks to override.
For H, standard SIESTA heuristics set lmxkb to 2
 (one more than the basis l, including polarization orbitals).
Use PS.lmax or PS.KBprojectors blocks to override.
For N, standard SIESTA heuristics set lmxkb to 3
 (one more than the basis l, including polarization orbitals).
Use PS.lmax or PS.KBprojectors blocks to override.
For O, standard SIESTA heuristics set lmxkb to 3
 (one more than the basis l, including polarization orbitals).
Use PS.lmax or PS.KBprojectors blocks to override.

<basis_specs>
===============================================================================
C                    Z=   6    Mass=  12.011        Charge= 0.17977+309
Lmxo=2 Lmxkb= 3    BasisType=split      Semic=F
L=0  Nsemic=0  Cnfigmx=2
          i=1  nzeta=2  polorb=0  (2s)
            splnorm:   0.15000    
               vcte:    40.000    
               rinn:  -0.90000    
               qcoe:    0.0000    
               qyuk:    0.0000    
               qwid:   0.10000E-01
                rcs:    0.0000      0.0000    
            lambdas:    1.0000      1.0000    
L=1  Nsemic=0  Cnfigmx=2
          i=1  nzeta=2  polorb=1  (2p)  (to be polarized perturbatively)
            splnorm:   0.15000    
               vcte:    40.000    
               rinn:  -0.90000    
               qcoe:    0.0000    
               qyuk:    0.0000    
               qwid:   0.10000E-01
                rcs:    0.0000      0.0000    
            lambdas:    1.0000      1.0000    
L=2  Nsemic=0  Cnfigmx=3
          i=1  nzeta=0  polorb=0  (3d)  (perturbative polarization orbital) (from 2p)
-------------------------------------------------------------------------------
L=0  Nkbl=1  erefs: 0.17977+309
L=1  Nkbl=1  erefs: 0.17977+309
L=2  Nkbl=1  erefs: 0.17977+309
L=3  Nkbl=1  erefs: 0.17977+309
===============================================================================
</basis_specs>

Using PAO.SplitTailNorm
atom: Called for C                     (Z =   6)
Maximum radius (at nrval) set to   50.00000 8518

read_vps: Pseudopotential generation method:
read_vps: ATM4.1.0  Troullier-Martins                       
Valence charge in pseudo generation:    4.00000

read_vps: Pseudopotential includes a core correction:
read_vps: Pseudo-core for xc-correction

xc_check: Exchange-correlation functional:
xc_check: VDW Klimes-Bowler-Michaelides
xc_check: WARNING: Pseudopotential generated with GGA PBE functional
V l=0 = -2*Zval/r beyond r=  1.3182
V l=1 = -2*Zval/r beyond r=  1.3464
V l=2 = -2*Zval/r beyond r=  1.5833
V l=3 = -2*Zval/r beyond r=  1.5786
All V_l potentials equal beyond r=  1.5770
This should be close to max(r_c) in ps generation
All pots = -2*Zval/r beyond r=  1.5833
Using small-core scheme (local charge) for Vlocal

VLOCAL_FROM_CHLOCAL: 99.0% of the norm of Vloc inside     17.455 Ry
VLOCAL_FROM_CHLOCAL: 99.9% of the norm of Vloc inside     39.780 Ry
atom: Maximum radius for chlocal:    1.88237
atom: Maximum radius for r*vlocal+2*Zval:    1.72643

KBgen: Kleinman-Bylander projectors: 
GHOST: No ghost state for L =  0
   l= 0   rc=  1.736877   el= -1.020388   Ekb=  8.249114   kbcos=  0.220505
GHOST: No ghost state for L =  1
   l= 1   rc=  1.735131   el= -0.401258   Ekb= -5.619827   kbcos= -0.328599
GHOST: No ghost state for L =  2
   l= 2   rc=  2.031796   el=  0.013225   Ekb= -0.930857   kbcos= -0.011208
GHOST: No ghost state for L =  3
   l= 3   rc=  2.292119   el=  0.019576   Ekb= -0.391040   kbcos= -0.001576

KBgen: Total number of Kleinman-Bylander projectors:  16
atom: -------------------------------------------------------------------------

atom: SANKEY-TYPE ORBITALS:
atom: Selected multiple-zeta basis: split     

SPLIT: Orbitals with angular momentum L= 0

SPLIT: Basis orbitals for state 2s

SPLIT: PAO cut-off radius determined from an
SPLIT: energy shift=  0.007350 Ry
Split based on tail norm

   izeta = 1
                 lambda =    1.000000
                     rc =    4.649135
                 energy =   -1.012056
                kinetic =    0.924199
    potential(screened) =   -1.936254
       potential(ionic) =   -5.500926

   izeta = 2
                 rmatch =    3.097535
              splitnorm =    0.150000
                 energy =   -0.753048
                kinetic =    1.677436
    potential(screened) =   -2.430485
       potential(ionic) =   -6.288589

SPLIT: Orbitals with angular momentum L= 1

SPLIT: Basis orbitals for state 2p

SPLIT: PAO cut-off radius determined from an
SPLIT: energy shift=  0.007350 Ry
Split based on tail norm

   izeta = 1
                 lambda =    1.000000
                     rc =    5.669310
                 energy =   -0.392975
                kinetic =    2.506148
    potential(screened) =   -2.899123
       potential(ionic) =   -6.340802

   izeta = 2
                 rmatch =    3.774182
              splitnorm =    0.150000
                 energy =   -0.275270
                kinetic =    3.603259
    potential(screened) =   -3.878528
       potential(ionic) =   -7.663255

POLgen: Perturbative polarization orbital with L=  2

POLgen: Polarization orbital for state 2p
Split based on tail norm

   izeta = 1
                     rc =    5.669310
                 energy =    1.122389
                kinetic =    2.278964
    potential(screened) =   -1.156575
       potential(ionic) =   -3.981653
atom: Total number of Sankey-type orbitals: 13

atm_pop: Valence configuration (for local Pseudopot. screening):
 2s( 2.00)                                                            
 2p( 2.00)                                                            
 3d( 0.00)                                                            
Vna: chval, zval:    4.00000   4.00000

Vna:  Cut-off radius for the neutral-atom potential:   5.669310
comcore: Pseudo-core radius Rcore=  1.772167

atom: _________________________________________________________________________

<basis_specs>
===============================================================================
H                    Z=   1    Mass=  1.0080        Charge= 0.17977+309
Lmxo=1 Lmxkb= 2    BasisType=split      Semic=F
L=0  Nsemic=0  Cnfigmx=1
          i=1  nzeta=2  polorb=1  (1s)  (to be polarized perturbatively)
            splnorm:   0.15000    
               vcte:    40.000    
               rinn:  -0.90000    
               qcoe:    0.0000    
               qyuk:    0.0000    
               qwid:   0.10000E-01
                rcs:    0.0000      0.0000    
            lambdas:    1.0000      1.0000    
L=1  Nsemic=0  Cnfigmx=2
          i=1  nzeta=0  polorb=0  (2p)  (perturbative polarization orbital) (from 1s)
-------------------------------------------------------------------------------
L=0  Nkbl=1  erefs: 0.17977+309
L=1  Nkbl=1  erefs: 0.17977+309
L=2  Nkbl=1  erefs: 0.17977+309
===============================================================================
</basis_specs>

Using PAO.SplitTailNorm
atom: Called for H                     (Z =   1)
Maximum radius (at nrval) set to   50.00000 8518

read_vps: Pseudopotential generation method:
read_vps: ATM4.1.0  Troullier-Martins                       
Valence charge in pseudo generation:    1.00000

xc_check: Exchange-correlation functional:
xc_check: VDW Klimes-Bowler-Michaelides
xc_check: WARNING: Pseudopotential generated with GGA PBE functional
V l=0 = -2*Zval/r beyond r=  1.3024
V l=1 = -2*Zval/r beyond r=  1.2802
V l=2 = -2*Zval/r beyond r=  1.2802
All V_l potentials equal beyond r=  1.3011
This should be close to max(r_c) in ps generation
All pots = -2*Zval/r beyond r=  1.3024
Using small-core scheme (local charge) for Vlocal

VLOCAL_FROM_CHLOCAL: 99.0% of the norm of Vloc inside     25.643 Ry
VLOCAL_FROM_CHLOCAL: 99.9% of the norm of Vloc inside     58.442 Ry
atom: Maximum radius for chlocal:    1.51933
atom: Maximum radius for r*vlocal+2*Zval:    1.37795

KBgen: Kleinman-Bylander projectors: 
GHOST: No ghost state for L =  0
   l= 0   rc=  1.452036   el= -0.494844   Ekb= -1.962033   kbcos= -0.366867
GHOST: No ghost state for L =  1
   l= 1   rc=  1.709150   el=  0.006534   Ekb= -0.631641   kbcos= -0.022353
GHOST: No ghost state for L =  2
   l= 2   rc=  2.001398   el=  0.013276   Ekb= -0.260152   kbcos= -0.002632

KBgen: Total number of Kleinman-Bylander projectors:   9
atom: -------------------------------------------------------------------------

atom: SANKEY-TYPE ORBITALS:
atom: Selected multiple-zeta basis: split     

SPLIT: Orbitals with angular momentum L= 0

SPLIT: Basis orbitals for state 1s

SPLIT: PAO cut-off radius determined from an
SPLIT: energy shift=  0.007350 Ry
Split based on tail norm

   izeta = 1
                 lambda =    1.000000
                     rc =    5.424839
                 energy =   -0.486555
                kinetic =    0.944729
    potential(screened) =   -1.431284
       potential(ionic) =   -1.937848

   izeta = 2
                 rmatch =    3.582433
              splitnorm =    0.150000
                 energy =   -0.330505
                kinetic =    1.688410
    potential(screened) =   -2.018915
       potential(ionic) =   -2.546203

POLgen: Perturbative polarization orbital with L=  1

POLgen: Polarization orbital for state 1s
Split based on tail norm

   izeta = 1
                     rc =    5.424839
                 energy =    0.650312
                kinetic =    1.305598
    potential(screened) =   -0.655287
       potential(ionic) =   -1.130048
atom: Total number of Sankey-type orbitals:  5

atm_pop: Valence configuration (for local Pseudopot. screening):
 1s( 1.00)                                                            
 2p( 0.00)                                                            
Vna: chval, zval:    1.00000   1.00000

Vna:  Cut-off radius for the neutral-atom potential:   5.424839

atom: _________________________________________________________________________

<basis_specs>
===============================================================================
N                    Z=   7    Mass=  14.007        Charge= 0.17977+309
Lmxo=2 Lmxkb= 3    BasisType=split      Semic=F
L=0  Nsemic=0  Cnfigmx=2
          i=1  nzeta=2  polorb=0  (2s)
            splnorm:   0.15000    
               vcte:    40.000    
               rinn:  -0.90000    
               qcoe:    0.0000    
               qyuk:    0.0000    
               qwid:   0.10000E-01
                rcs:    0.0000      0.0000    
            lambdas:    1.0000      1.0000    
L=1  Nsemic=0  Cnfigmx=2
          i=1  nzeta=2  polorb=1  (2p)  (to be polarized perturbatively)
            splnorm:   0.15000    
               vcte:    40.000    
               rinn:  -0.90000    
               qcoe:    0.0000    
               qyuk:    0.0000    
               qwid:   0.10000E-01
                rcs:    0.0000      0.0000    
            lambdas:    1.0000      1.0000    
L=2  Nsemic=0  Cnfigmx=3
          i=1  nzeta=0  polorb=0  (3d)  (perturbative polarization orbital) (from 2p)
-------------------------------------------------------------------------------
L=0  Nkbl=1  erefs: 0.17977+309
L=1  Nkbl=1  erefs: 0.17977+309
L=2  Nkbl=1  erefs: 0.17977+309
L=3  Nkbl=1  erefs: 0.17977+309
===============================================================================
</basis_specs>

Using PAO.SplitTailNorm
atom: Called for N                     (Z =   7)
Maximum radius (at nrval) set to   50.00000 8518

read_vps: Pseudopotential generation method:
read_vps: ATM4.1.0  Troullier-Martins                       
Valence charge in pseudo generation:    5.00000

read_vps: Pseudopotential includes a core correction:
read_vps: Pseudo-core for xc-correction

xc_check: Exchange-correlation functional:
xc_check: VDW Klimes-Bowler-Michaelides
xc_check: WARNING: Pseudopotential generated with GGA PBE functional
V l=0 = -2*Zval/r beyond r=  1.3919
V l=1 = -2*Zval/r beyond r=  1.4145
V l=2 = -2*Zval/r beyond r=  1.7230
V l=3 = -2*Zval/r beyond r=  2.9342
All V_l potentials equal beyond r=  2.9166
This should be close to max(r_c) in ps generation
All pots = -2*Zval/r beyond r=  2.9342
Using small-core scheme (local charge) for Vlocal

VLOCAL_FROM_CHLOCAL: 99.0% of the norm of Vloc inside      5.103 Ry
VLOCAL_FROM_CHLOCAL: 99.9% of the norm of Vloc inside     11.630 Ry
atom: Maximum radius for chlocal:    3.45541
atom: Maximum radius for r*vlocal+2*Zval:    3.20822

KBgen: Kleinman-Bylander projectors: 
GHOST: No ghost state for L =  0
   l= 0   rc=  3.023842   el= -1.375728   Ekb= -2.823702   kbcos= -0.744201
GHOST: No ghost state for L =  1
   l= 1   rc=  2.987653   el= -0.533023   Ekb= -8.682923   kbcos= -0.586664
GHOST: No ghost state for L =  2
   l= 2   rc=  3.306234   el=  0.013276   Ekb= -1.644735   kbcos= -0.033118
GHOST: No ghost state for L =  3
   l= 3   rc=  3.448482   el=  0.019583   Ekb= -0.283699   kbcos= -0.015721

KBgen: Total number of Kleinman-Bylander projectors:  16
atom: -------------------------------------------------------------------------

atom: SANKEY-TYPE ORBITALS:
atom: Selected multiple-zeta basis: split     

SPLIT: Orbitals with angular momentum L= 0

SPLIT: Basis orbitals for state 2s

SPLIT: PAO cut-off radius determined from an
SPLIT: energy shift=  0.007350 Ry
Split based on tail norm

   izeta = 1
                 lambda =    1.000000
                     rc =    4.081165
                 energy =   -1.367466
                kinetic =    1.207915
    potential(screened) =   -2.575381
       potential(ionic) =   -8.096668

   izeta = 2
                 rmatch =    2.654003
              splitnorm =    0.150000
                 energy =   -1.049355
                kinetic =    2.089693
    potential(screened) =   -3.139048
       potential(ionic) =   -9.141946

SPLIT: Orbitals with angular momentum L= 1

SPLIT: Basis orbitals for state 2p

SPLIT: PAO cut-off radius determined from an
SPLIT: energy shift=  0.007350 Ry
Split based on tail norm

   izeta = 1
                 lambda =    1.000000
                     rc =    4.996964
                 energy =   -0.524823
                kinetic =    3.499383
    potential(screened) =   -4.024206
       potential(ionic) =   -9.360818

   izeta = 2
                 rmatch =    3.237319
              splitnorm =    0.150000
                 energy =   -0.376275
                kinetic =    4.926275
    potential(screened) =   -5.302550
       potential(ionic) =  -11.169650

POLgen: Perturbative polarization orbital with L=  2

POLgen: Polarization orbital for state 2p
Split based on tail norm

   izeta = 1
                     rc =    4.996964
                 energy =    1.593927
                kinetic =    3.073939
    potential(screened) =   -1.480013
       potential(ionic) =   -5.759099
atom: Total number of Sankey-type orbitals: 13

atm_pop: Valence configuration (for local Pseudopot. screening):
 2s( 2.00)                                                            
 2p( 3.00)                                                            
 3d( 0.00)                                                            
Vna: chval, zval:    5.00000   5.00000

Vna:  Cut-off radius for the neutral-atom potential:   4.996964
comcore: Pseudo-core radius Rcore=  1.539341

atom: _________________________________________________________________________

<basis_specs>
===============================================================================
O                    Z=   8    Mass=  15.999        Charge= 0.17977+309
Lmxo=2 Lmxkb= 3    BasisType=split      Semic=F
L=0  Nsemic=0  Cnfigmx=2
          i=1  nzeta=2  polorb=0  (2s)
            splnorm:   0.15000    
               vcte:    40.000    
               rinn:  -0.90000    
               qcoe:    0.0000    
               qyuk:    0.0000    
               qwid:   0.10000E-01
                rcs:    0.0000      0.0000    
            lambdas:    1.0000      1.0000    
L=1  Nsemic=0  Cnfigmx=2
          i=1  nzeta=2  polorb=1  (2p)  (to be polarized perturbatively)
            splnorm:   0.15000    
               vcte:    40.000    
               rinn:  -0.90000    
               qcoe:    0.0000    
               qyuk:    0.0000    
               qwid:   0.10000E-01
                rcs:    0.0000      0.0000    
            lambdas:    1.0000      1.0000    
L=2  Nsemic=0  Cnfigmx=3
          i=1  nzeta=0  polorb=0  (3d)  (perturbative polarization orbital) (from 2p)
-------------------------------------------------------------------------------
L=0  Nkbl=1  erefs: 0.17977+309
L=1  Nkbl=1  erefs: 0.17977+309
L=2  Nkbl=1  erefs: 0.17977+309
L=3  Nkbl=1  erefs: 0.17977+309
===============================================================================
</basis_specs>

Using PAO.SplitTailNorm
atom: Called for O                     (Z =   8)
Maximum radius (at nrval) set to   50.00000 8518

read_vps: Pseudopotential generation method:
read_vps: ATM4.1.0  Troullier-Martins                       
Valence charge in pseudo generation:    6.00000

read_vps: Pseudopotential includes a core correction:
read_vps: Pseudo-core for xc-correction

xc_check: Exchange-correlation functional:
xc_check: VDW Klimes-Bowler-Michaelides
xc_check: WARNING: Pseudopotential generated with GGA PBE functional
V l=0 = -2*Zval/r beyond r=  1.7247
V l=1 = -2*Zval/r beyond r=  1.7580
V l=2 = -2*Zval/r beyond r=  1.7247
V l=3 = -2*Zval/r beyond r=  1.7247
All V_l potentials equal beyond r=  1.7562
This should be close to max(r_c) in ps generation
All pots = -2*Zval/r beyond r=  1.7580
Using small-core scheme (local charge) for Vlocal

VLOCAL_FROM_CHLOCAL: 99.0% of the norm of Vloc inside     14.074 Ry
VLOCAL_FROM_CHLOCAL: 99.9% of the norm of Vloc inside     32.075 Ry
atom: Maximum radius for chlocal:    2.10664
atom: Maximum radius for r*vlocal+2*Zval:    1.94000

KBgen: Kleinman-Bylander projectors: 
GHOST: No ghost state for L =  0
   l= 0   rc=  1.914815   el= -1.777109   Ekb=-12.883099   kbcos= -0.199777
GHOST: No ghost state for L =  1
   l= 1   rc=  1.905215   el= -0.682147   Ekb= -6.438893   kbcos= -0.577559
GHOST: No ghost state for L =  2
   l= 2   rc=  2.093978   el=  0.013299   Ekb= -2.963186   kbcos= -0.008111
GHOST: No ghost state for L =  3
   l= 3   rc=  2.402901   el=  0.019585   Ekb= -0.577341   kbcos= -0.002012

KBgen: Total number of Kleinman-Bylander projectors:  16
atom: -------------------------------------------------------------------------

atom: SANKEY-TYPE ORBITALS:
atom: Selected multiple-zeta basis: split     

SPLIT: Orbitals with angular momentum L= 0

SPLIT: Basis orbitals for state 2s

SPLIT: PAO cut-off radius determined from an
SPLIT: energy shift=  0.007350 Ry
Split based on tail norm

   izeta = 1
                 lambda =    1.000000
                     rc =    3.655005
                 energy =   -1.768939
                kinetic =    1.719971
    potential(screened) =   -3.488910
       potential(ionic) =  -11.303034

   izeta = 2
                 rmatch =    2.326911
              splitnorm =    0.150000
                 energy =   -1.349000
                kinetic =    3.044643
    potential(screened) =   -4.393643
       potential(ionic) =  -12.875785

SPLIT: Orbitals with angular momentum L= 1

SPLIT: Basis orbitals for state 2p

SPLIT: PAO cut-off radius determined from an
SPLIT: energy shift=  0.007350 Ry
Split based on tail norm

   izeta = 1
                 lambda =    1.000000
                     rc =    4.475410
                 energy =   -0.673990
                kinetic =    4.284088
    potential(screened) =   -4.958077
       potential(ionic) =  -12.470506

   izeta = 2
                 rmatch =    2.832915
              splitnorm =    0.150000
                 energy =   -0.486678
                kinetic =    5.911252
    potential(screened) =   -6.397931
       potential(ionic) =  -14.613396

POLgen: Perturbative polarization orbital with L=  2

POLgen: Polarization orbital for state 2p
Split based on tail norm

   izeta = 1
                     rc =    4.475410
                 energy =    2.156729
                kinetic =    4.153113
    potential(screened) =   -1.996384
       potential(ionic) =   -8.041506
atom: Total number of Sankey-type orbitals: 13

atm_pop: Valence configuration (for local Pseudopot. screening):
 2s( 2.00)                                                            
 2p( 4.00)                                                            
 3d( 0.00)                                                            
Vna: chval, zval:    6.00000   6.00000

Vna:  Cut-off radius for the neutral-atom potential:   4.475410
comcore: Pseudo-core radius Rcore=  1.364142

atom: _________________________________________________________________________

prinput: Basis input 

PAO.BasisType split     

%block ChemicalSpeciesLabel
    1    6 C                       # Species index, atomic number, species label
    2    1 H                       # Species index, atomic number, species label
    3    7 N                       # Species index, atomic number, species label
    4    8 O                       # Species index, atomic number, species label
%endblock ChemicalSpeciesLabel

%block PAO.Basis                 # Define Basis set
# WARNING: This information might be incomplete!
C                     2                    # Species label, number of l-shells
 n=2   0   2                         # n, l, Nzeta 
   4.649      3.098   
   1.000      1.000   
 n=2   1   2 P   1                   # n, l, Nzeta, Polarization, NzetaPol
   5.669      3.774   
   1.000      1.000   
H                     1                    # Species label, number of l-shells
 n=1   0   2 P   1                   # n, l, Nzeta, Polarization, NzetaPol
   5.425      3.582   
   1.000      1.000   
N                     2                    # Species label, number of l-shells
 n=2   0   2                         # n, l, Nzeta 
   4.081      2.654   
   1.000      1.000   
 n=2   1   2 P   1                   # n, l, Nzeta, Polarization, NzetaPol
   4.997      3.237   
   1.000      1.000   
O                     2                    # Species label, number of l-shells
 n=2   0   2                         # n, l, Nzeta 
   3.655      2.327   
   1.000      1.000   
 n=2   1   2 P   1                   # n, l, Nzeta, Polarization, NzetaPol
   4.475      2.833   
   1.000      1.000   
%endblock PAO.Basis

prinput: ----------------------------------------------------------------------

Dumping basis to NetCDF file C.ion.nc
Dumping basis to NetCDF file H.ion.nc
Dumping basis to NetCDF file N.ion.nc
Dumping basis to NetCDF file O.ion.nc
coor:   Atomic-coordinates input format  =     Cartesian coordinates
coor:                                          (in Angstroms)

siesta: WARNING: XV file not found

siesta: Atomic coordinates (Bohr) and species
siesta:      1.16622  45.78560  18.89726  1        1
siesta:     31.48638  33.61352  18.89726  1        2
siesta:     29.10947  34.98097  18.89726  1        3
siesta:     29.15551  37.70579  18.89726  1        4
siesta:     31.48795  39.05242  18.89726  1        5
siesta:     31.48795  41.74569  18.89726  1        6
siesta:     29.15551  43.09233  18.89726  1        7
siesta:     33.82039  45.78560  18.89726  1        8
siesta:     36.15283  47.13223  18.89726  1        9
siesta:     36.15283   1.34664  18.89726  1       10
siesta:     33.82039   2.69327  18.89726  1       11
siesta:     33.82039   5.38654  18.89726  1       12
siesta:     36.15283   6.73318  18.89726  1       13
siesta:     36.15283   9.42645  18.89726  1       14
siesta:     33.82039  10.77308  18.89726  1       15
siesta:     33.82039  13.46635  18.89726  1       16
siesta:     36.15283  14.81299  18.89726  1       17
siesta:     36.15283  17.50626  18.89726  1       18
siesta:     33.81150  18.85445  18.89726  1       19
siesta:     33.83420  21.52507  18.89726  1       20
siesta:     36.09956  22.86526  18.89726  1       21
siesta:     36.09956  25.61361  18.89726  1       22
siesta:     33.83420  26.95380  18.89726  1       23
siesta:     33.81150  29.62442  18.89726  1       24
siesta:     31.51647  30.96915  18.89726  1       25
siesta:     36.15283  30.97261  18.89726  1       26
siesta:     31.51647  17.50972  18.89726  1       27
siesta:     29.10947  13.49790  18.89726  1       28
siesta:     24.49063  45.78560  18.89726  1       29
siesta:     26.82307  47.13223  18.89726  1       30
siesta:     26.82307   1.34664  18.89726  1       31
siesta:     24.49063   5.38654  18.89726  1       32
siesta:     26.82307   6.73318  18.89726  1       33
siesta:     26.82307   9.42645  18.89726  1       34
siesta:     24.49063  10.77308  18.89726  1       35
siesta:     24.49063  13.47948  18.89726  1       36
siesta:     26.80854  14.79359  18.89726  1       37
siesta:     26.80854  33.68528  18.89726  1       38
siesta:     24.49063  34.99938  18.89726  1       39
siesta:     24.49063  37.70579  18.89726  1       40
siesta:     26.82307  39.05242  18.89726  1       41
siesta:     26.82307  41.74569  18.89726  1       42
siesta:     24.49063  43.09233  18.89726  1       43
siesta:     29.15551  45.78560  18.89726  1       44
siesta:     31.48795  47.13223  18.89726  1       45
siesta:     31.48795   1.34664  18.89726  1       46
siesta:     29.15551   2.69327  18.89726  1       47
siesta:     29.15551   5.38654  18.89726  1       48
siesta:     31.48795   6.73318  18.89726  1       49
siesta:     31.48795   9.42645  18.89726  1       50
siesta:     29.15551  10.77308  18.89726  1       51
siesta:     31.48638  14.86535  18.89726  1       52
siesta:     36.15283  33.66588  18.89726  1       53
siesta:     33.82039  35.01252  18.89726  1       54
siesta:     33.82039  37.70579  18.89726  1       55
siesta:     45.48259  47.13223  18.89726  1       56
siesta:     45.48259   1.34664  18.89726  1       57
siesta:     43.15015   2.69327  18.89726  1       58
siesta:     43.15015   5.38654  18.89726  1       59
siesta:     45.48259   6.73318  18.89726  1       60
siesta:     45.48259   9.42645  18.89726  1       61
siesta:     43.15015  10.77308  18.89726  1       62
siesta:     43.15015  13.46635  18.89726  1       63
siesta:     45.48259  14.81299  18.89726  1       64
siesta:     45.48259  17.50626  18.89726  1       65
siesta:     43.15015  18.85289  18.89726  1       66
siesta:     43.15015  21.54616  18.89726  1       67
siesta:     45.48259  22.89280  18.89726  1       68
siesta:     45.48259  25.58607  18.89726  1       69
siesta:     43.15015  26.93270  18.89726  1       70
siesta:     43.15015  29.62597  18.89726  1       71
siesta:     45.48259  30.97261  18.89726  1       72
siesta:     45.48259  33.66588  18.89726  1       73
siesta:     43.15015  35.01252  18.89726  1       74
siesta:     43.15015  37.70579  18.89726  1       75
siesta:     45.48259  39.05242  18.89726  1       76
siesta:     45.48259  41.74569  18.89726  1       77
siesta:     43.15015  43.09233  18.89726  1       78
siesta:     43.15015  45.78560  18.89726  1       79
siesta:     38.48527  43.09233  18.89726  1       80
siesta:     40.81771  41.74569  18.89726  1       81
siesta:     40.81771  39.05242  18.89726  1       82
siesta:     36.15283  39.05242  18.89726  1       83
siesta:     36.15283  41.74569  18.89726  1       84
siesta:     33.82039  43.09233  18.89726  1       85
siesta:     38.48527  45.78560  18.89726  1       86
siesta:     40.81771  47.13223  18.89726  1       87
siesta:     40.81771   1.34664  18.89726  1       88
siesta:     38.48527   2.69327  18.89726  1       89
siesta:     38.48527   5.38654  18.89726  1       90
siesta:     40.81771   6.73318  18.89726  1       91
siesta:     40.81771   9.42645  18.89726  1       92
siesta:     38.48527  10.77308  18.89726  1       93
siesta:     19.82574  43.09233  18.89726  1       94
siesta:     38.48527  13.46635  18.89726  1       95
siesta:     40.81771  17.50626  18.89726  1       96
siesta:     38.48527  18.85289  18.89726  1       97
siesta:     38.48527  21.54616  18.89726  1       98
siesta:     40.81771  22.89280  18.89726  1       99
siesta:     40.81771  25.58607  18.89726  1      100
siesta:     38.48527  26.93270  18.89726  1      101
siesta:     38.48527  29.62597  18.89726  1      102
siesta:     40.81771  30.97261  18.89726  1      103
siesta:     40.81771  33.66588  18.89726  1      104
siesta:     38.48527  35.01252  18.89726  1      105
siesta:     38.48527  37.70579  18.89726  1      106
siesta:     40.81771  14.81299  18.89726  1      107
siesta:     22.15819  41.74569  18.89726  1      108
siesta:     24.49063   2.69327  18.89726  1      109
siesta:     19.82574  37.70579  18.89726  1      110
siesta:      8.16354   6.73318  18.89726  1      111
siesta:      8.16354   9.42645  18.89726  1      112
siesta:      5.83110  10.77308  18.89726  1      113
siesta:      5.83110  13.46635  18.89726  1      114
siesta:      8.16354  14.81299  18.89726  1      115
siesta:      8.16354  17.50626  18.89726  1      116
siesta:      5.83110  18.85289  18.89726  1      117
siesta:      5.83110  21.54616  18.89726  1      118
siesta:      8.16354  22.89280  18.89726  1      119
siesta:      8.16354  25.58607  18.89726  1      120
siesta:      5.83110  26.93270  18.89726  1      121
siesta:      5.83110  29.62597  18.89726  1      122
siesta:      8.16354  30.97261  18.89726  1      123
siesta:      8.16354  33.66588  18.89726  1      124
siesta:      5.83110  35.01252  18.89726  1      125
siesta:      5.83110  37.70579  18.89726  1      126
siesta:      8.16354  39.05242  18.89726  1      127
siesta:      8.16354  41.74569  18.89726  1      128
siesta:      5.83110  43.09233  18.89726  1      129
siesta:     22.15819  39.05242  18.89726  1      130
siesta:     12.82842  47.13223  18.89726  1      131
siesta:     12.82842   1.34664  18.89726  1      132
siesta:     10.49598   2.69327  18.89726  1      133
siesta:      5.83110   5.38654  18.89726  1      134
siesta:      5.83110   2.69327  18.89726  1      135
siesta:      8.16354   1.34664  18.89726  1      136
siesta:      8.16354  47.13223  18.89726  1      137
siesta:      3.49866  47.13223  18.89726  1      138
siesta:      3.49866   1.34664  18.89726  1      139
siesta:      1.16622   2.69327  18.89726  1      140
siesta:      1.16622   5.38654  18.89726  1      141
siesta:      3.49866   6.73318  18.89726  1      142
siesta:      3.49866   9.42645  18.89726  1      143
siesta:      1.16622  10.77308  18.89726  1      144
siesta:      1.16622  13.46635  18.89726  1      145
siesta:      3.49866  14.81299  18.89726  1      146
siesta:      3.49866  17.50626  18.89726  1      147
siesta:      1.16622  18.85289  18.89726  1      148
siesta:     10.49598   5.38654  18.89726  1      149
siesta:      1.16622  21.54616  18.89726  1      150
siesta:      3.49866  25.58607  18.89726  1      151
siesta:      1.16622  26.93270  18.89726  1      152
siesta:      1.16622  29.62597  18.89726  1      153
siesta:      3.49866  30.97261  18.89726  1      154
siesta:      3.49866  33.66588  18.89726  1      155
siesta:      1.16622  35.01252  18.89726  1      156
siesta:      1.16622  37.70579  18.89726  1      157
siesta:      3.49866  39.05242  18.89726  1      158
siesta:      3.49866  41.74569  18.89726  1      159
siesta:      1.16622  43.09233  18.89726  1      160
siesta:      5.83110  45.78560  18.89726  1      161
siesta:      3.49866  22.89280  18.89726  1      162
siesta:     12.82842   6.73318  18.89726  1      163
siesta:     10.49598  45.78560  18.89726  1      164
siesta:     10.49598  10.77308  18.89726  1      165
siesta:     15.16975  18.85445  18.89726  1      166
siesta:     15.14705  21.52507  18.89726  1      167
siesta:     15.14705  26.95380  18.89726  1      168
siesta:     12.82842   9.42645  18.89726  1      169
siesta:     17.46478  30.96915  18.89726  1      170
siesta:     17.49487  33.61352  18.89726  1      171
siesta:     15.16086  35.01252  18.89726  1      172
siesta:     15.16086  37.70579  18.89726  1      173
siesta:     17.49330  39.05242  18.89726  1      174
siesta:     17.49330  41.74569  18.89726  1      175
siesta:     15.16086  43.09233  18.89726  1      176
siesta:     19.82574  45.78560  18.89726  1      177
siesta:     22.15819  47.13223  18.89726  1      178
siesta:     22.15819   1.34664  18.89726  1      179
siesta:     19.82574   2.69327  18.89726  1      180
siesta:     19.82574   5.38654  18.89726  1      181
siesta:     22.15819   6.73318  18.89726  1      182
siesta:     22.15819   9.42645  18.89726  1      183
siesta:     19.82574  10.77308  18.89726  1      184
siesta:     19.87178  13.49790  18.89726  1      185
siesta:     22.17271  14.79359  18.89726  1      186
siesta:     22.17271  33.68528  18.89726  1      187
siesta:     19.87178  34.98097  18.89726  1      188
siesta:     17.46478  17.50972  18.89726  1      189
siesta:     17.49487  14.86535  18.89726  1      190
siesta:     15.16975  29.62442  18.89726  1      191
siesta:     15.16086  10.77308  18.89726  1      192
siesta:     10.49598  13.46635  18.89726  1      193
siesta:     12.82842  14.81299  18.89726  1      194
siesta:     12.82842  17.50626  18.89726  1      195
siesta:     10.49598  18.85289  18.89726  1      196
siesta:     10.49598  21.54616  18.89726  1      197
siesta:     15.16086  13.46635  18.89726  1      198
siesta:     12.88169  25.61361  18.89726  1      199
siesta:     10.49598  26.93270  18.89726  1      200
siesta:     10.49598  29.62597  18.89726  1      201
siesta:     12.82842  30.97261  18.89726  1      202
siesta:     12.82842  33.66588  18.89726  1      203
siesta:     12.88169  22.86526  18.89726  1      204
siesta:     10.49598  37.70579  18.89726  1      205
siesta:     10.49598  35.01252  18.89726  1      206
siesta:     17.49330   6.73318  18.89726  1      207
siesta:     15.16086   5.38654  18.89726  1      208
siesta:     15.16086   2.69327  18.89726  1      209
siesta:     17.49330   1.34664  18.89726  1      210
siesta:     17.49330   9.42645  18.89726  1      211
siesta:     15.16086  45.78560  18.89726  1      212
siesta:     10.49598  43.09233  18.89726  1      213
siesta:     12.82842  41.74569  18.89726  1      214
siesta:     12.82842  39.05242  18.89726  1      215
siesta:     17.49330  47.13223  18.89726  1      216
siesta:     29.75292  29.85660  18.89726  2      217
siesta:     29.75292  18.62227  18.89726  2      218
siesta:     26.72687  31.60156  18.89726  2      219
siesta:     26.72687  16.87730  18.89726  2      220
siesta:     22.25438  31.60156  18.89726  2      221
siesta:     19.22833  29.85660  18.89726  2      222
siesta:     16.99363  25.98467  18.89726  2      223
siesta:     16.99363  22.49420  18.89726  2      224
siesta:     19.22833  18.62227  18.89726  2      225
siesta:     31.98762  22.49420  18.89726  2      226
siesta:     22.25438  16.87730  18.89726  2      227
siesta:     31.98762  25.98467  18.89726  2      228
siesta:     23.51926  24.73184  27.63876  1      229
siesta:     21.52340  23.34091  29.28819  1      230
siesta:     23.38417  23.71835  24.92082  1      231
siesta:     24.39506  22.57675  31.17278  2      232
siesta:     22.99016  26.77401  27.66255  2      233
siesta:     24.59736  24.84774  23.62158  2      234
siesta:     24.01230  21.70486  24.85971  2      235
siesta:     21.38936  23.79502  24.26082  2      236
siesta:     27.37117  23.53296  27.57315  2      237
siesta:     26.91716  26.12264  29.33908  2      238
siesta:     26.11960  24.37491  28.86007  3      239
siesta:     22.53130  22.17640  31.33526  4      240
siesta:     19.27764  23.30842  28.74124  4      241

siesta: System type = slab      

initatomlists: Number of atoms, orbitals, and projectors:    241  2981  3723

siesta: ******************** Simulation parameters ****************************
siesta:
siesta: The following are some of the parameters of the simulation.
siesta: A complete list of the parameters used, including default values,
siesta: can be found in file out.fdf
siesta:
redata: Spin configuration                          = none
redata: Number of spin components                   = 1
redata: Time-Reversal Symmetry                      = T
redata: Spin spiral                                 = F
redata: Long output                                 =   F
redata: Number of Atomic Species                    =        4
redata: Charge density info will appear in .RHO file
redata: Write Mulliken charges (when)               = none
redata: Write Mulliken Pop.                         = NO
redata: Write Hirshfeld charges (when)              = none
redata: Write Voronoi charges (when)                = none
redata: Write spin charge (when)                    = none
redata: Matel table size (NRTAB)                    =     1024
redata: Mesh Cutoff                                 =   250.0000 Ry
redata: Net charge of the system                    =     0.0000 |e|
redata: Min. number of SCF Iter                     =        0
redata: Max. number of SCF Iter                     =     2000
redata: SCF convergence failure will abort job
redata: SCF mix quantity                            = Hamiltonian
redata: Mix DM or H after convergence               =   F
redata: Recompute H after scf cycle                 =   F
redata: Mix DM in first SCF step                    =   T
redata: Write Pulay info on disk                    =   F
redata: New DM Occupancy tolerance                  = 0.000000000001
redata: No kicks to SCF
redata: DM Mixing Weight for Kicks                  =     0.5000
redata: Require Harris convergence for SCF          =   F
redata: Harris energy tolerance for SCF             =     0.000100 eV
redata: Require DM convergence for SCF              =   T
redata: DM tolerance for SCF                        =     0.000010
redata: Require EDM convergence for SCF             =   F
redata: EDM tolerance for SCF                       =     0.001000 eV
redata: Require H convergence for SCF               =   T
redata: Hamiltonian tolerance for SCF               =     0.001000 eV
redata: Require (free) Energy convergence for SCF   =   F
redata: (free) Energy tolerance for SCF             =     0.000100 eV
redata: Using DFT-D3 dispersion                     =   F
redata: Using Saved Data (generic)                  =   F
redata: Use continuation files for DM               =   T
redata: Neglect nonoverlap interactions             =   F
redata: Method of Calculation                       = Diagonalization
redata: Electronic Temperature                      =   300.0000 K
redata: Fix the spin of the system                  =   F
redata: Max. number of TDED Iter                    =        1
redata: Number of TDED substeps                     =        3
redata: Dynamics option                             = Single-point calculation
mix.SCF: Pulay mixing                            = Pulay
mix.SCF:    Variant                              = stable
mix.SCF:    History steps                        = 20
mix.SCF:    Linear mixing weight                 =     0.010000
mix.SCF:    Mixing weight                        =     0.010000
mix.SCF:    SVD condition                        = 0.1000E-07
redata: Save all siesta data in one NC              =   F
redata: ***********************************************************************

%block SCF.Mixers
  Pulay
%endblock SCF.Mixers

%block SCF.Mixer.Pulay
  # Mixing method
  method pulay
  variant stable

  # Mixing options
  weight 0.0100
  weight.linear 0.0100
  history 20
%endblock SCF.Mixer.Pulay

DM_history_depth set to one: no extrapolation allowed by default for geometry relaxation
Size of DM history Fstack: 1
Total number of electrons:   912.000000
Total ionic charge:   912.000000

* ProcessorY, Blocksize:    8  46


* Orbital distribution balance (max,min):    83    46

 Kpoints in:            1 . Kpoints trimmed:            1

siesta: k-grid: Number of k-points = 1
siesta: k-points from Monkhorst-Pack grid
siesta: k-cutoff (effective) =    10.000 Ang
siesta: k-point supercell and displacements
siesta: k-grid:     1     0     0      0.000
siesta: k-grid:     0     1     0      0.000
siesta: k-grid:     0     0     1      0.000

diag: Algorithm                                     = D&C
diag: Parallel over k                               =   F
diag: Use parallel 2D distribution                  =   T
diag: Parallel block-size                           = 46
diag: Parallel distribution                         =     8 x     8
diag: Used triangular part                          = Lower
diag: Absolute tolerance                            =  0.100E-15
diag: Orthogonalization factor                      =  0.100E-05
diag: Memory factor                                 =  1.0000


ts: **************************************************************
ts: Save H and S matrices                           =    F
ts: Save DM and EDM matrices                        =    F
ts: Only save the overlap matrix S                  =    F
ts: **************************************************************

************************ Begin: TS CHECKS AND WARNINGS ************************
************************ End: TS CHECKS AND WARNINGS **************************


                     ====================================
                        Single-point calculation
                     ====================================

outcell: Unit cell vectors (Ang):
       24.685488    0.000000    0.000000
        0.000000   25.653912    0.000000
        0.000000    0.000000   20.000000

outcell: Cell vector modules (Ang)   :   24.685488   25.653912   20.000000
outcell: Cell angles (23,13,12) (deg):     90.0000     90.0000     90.0000
outcell: Cell volume (Ang**3)        :  12665.5865
<dSpData1D:S at geom step 0
  <sparsity:sparsity for geom step 0
    nrows_g=2981 nrows=83 sparsity=.0037 nnzs=32820, refcount: 7>
  <dData1D:(new from dSpData1D) n=32820, refcount: 1>
refcount: 1>
new_DM -- step:     1
Initializing Density Matrix...

Attempting to read DM from file... Failed...
DM filled with atomic data:
<dSpData2D:DM initialized from atoms
  <sparsity:sparsity for geom step 0
    nrows_g=2981 nrows=83 sparsity=.0037 nnzs=32820, refcount: 8>
  <dData2D:DM n=32820 m=1, refcount: 1>
refcount: 1>
No. of atoms with KB's overlaping orbs in proc 0. Max # of overlaps:      60     221

InitMesh: MESH = 240 x 250 x 192 = 11520000
InitMesh: Mesh cutoff (required, used) =   250.000   254.709 Ry
New grid distribution [1]: sub = 2
New grid distribution [2]: sub = 2
New grid distribution [3]: sub = 2
Setting up quadratic distribution...

stepf: Fermi-Dirac step function

siesta: Program's energy decomposition (eV):
siesta: Ebs     =    -11050.629195
siesta: Eions   =     55608.971781
siesta: Ena     =     10755.827317
siesta: Ekin    =     26343.950980
siesta: Enl     =     -4486.675327
siesta: Eso     =         0.000000
siesta: Edftu   =         0.000000
siesta: DEna    =     -1334.100040
siesta: DUscf   =       128.868227
siesta: DUext   =         0.000000
siesta: Ex      =    -10214.739432
siesta: Ec      =     -1237.334670
siesta: Exc     =    -11452.074102
siesta: EbV     =         0.000000
siesta: eta*DQ  =         0.000000
siesta: Emadel  =         0.000000
siesta: Emeta   =         0.000000
siesta: Emolmec =         0.000000
siesta: Ekinion =         0.000000
siesta: Eharris =    -35487.768865
siesta: Etot    =    -35653.174727
siesta: FreeEng =    -35653.174875

        iscf     Eharris(eV)        E_KS(eV)     FreeEng(eV)     dDmax    Ef(eV) dHmax(eV)
   scf:    1   -35487.768865   -35653.174727   -35653.174875  1.938454 -6.126725  8.799603
timer: Routine,Calls,Time,% = IterSCF        1       4.964  16.09
   scf:    2   -35654.770921   -35653.974816   -35653.974962  0.003681 -6.096869  8.561161
   scf:    3   -35677.612469   -35673.140089   -35673.140266  0.188215 -4.386423  6.764485
   scf:    4   -35676.345405   -35674.972081   -35674.972227  0.042632 -4.532682  3.705354
   scf:    5   -35677.383378   -35676.461736   -35676.461877  0.045186 -4.227978  2.151602
   scf:    6   -35677.369489   -35677.012425   -35677.012568  0.024921 -4.283276  0.664101
   scf:    7   -35677.149748   -35677.084564   -35677.084707  0.003033 -4.250864  0.538977
   scf:    8   -35677.199498   -35677.169760   -35677.169898  0.015391 -4.277305  0.261914
   scf:    9   -35677.200834   -35677.190739   -35677.190878  0.007430 -4.225184  0.149136
   scf:   10   -35677.185143   -35677.191333   -35677.191471  0.007150 -4.270279  0.172426
   scf:   11   -35677.198477   -35677.198326   -35677.198465  0.005448 -4.215470  0.125192
   scf:   12   -35677.204337   -35677.202302   -35677.202440  0.002913 -4.253239  0.069135
   scf:   13   -35677.192041   -35677.198202   -35677.198340  0.003672 -4.225433  0.093322
   scf:   14   -35677.205462   -35677.202185   -35677.202324  0.001541 -4.247499  0.044826
   scf:   15   -35677.203418   -35677.202883   -35677.203022  0.000807 -4.261451  0.023158
   scf:   16   -35677.202884   -35677.202884   -35677.203022  0.000047 -4.261146  0.022485
   scf:   17   -35677.203041   -35677.202972   -35677.203110  0.000375 -4.264809  0.008339
mix: Pulay -- inversion failed, > SVD [rank/size] 11 / 16
   scf:   18   -35677.202985   -35677.202982   -35677.203121  0.000244 -4.266543  0.004032
mix: Pulay -- inversion failed, > SVD [rank/size] 11 / 17
   scf:   19   -35677.202983   -35677.202982   -35677.203121  0.000003 -4.266547  0.003931
mix: Pulay -- inversion failed, > SVD [rank/size] 11 / 18
   scf:   20   -35677.202983   -35677.202983   -35677.203121  0.000002 -4.266550  0.003815
mix: Pulay -- inversion failed, > SVD [rank/size] 11 / 19
   scf:   21   -35677.202983   -35677.202983   -35677.203121  0.000002 -4.266553  0.003703
mix: Pulay -- inversion failed, > SVD [rank/size] 11 / 19
   scf:   22   -35677.202983   -35677.202983   -35677.203121  0.000002 -4.266554  0.003590
mix: Pulay -- inversion failed, > SVD [rank/size] 11 / 19
   scf:   23   -35677.202982   -35677.202983   -35677.203121  0.000025 -4.266581  0.004280
mix: Pulay -- inversion failed, > SVD [rank/size] 11 / 19
   scf:   24   -35677.202983   -35677.202983   -35677.203121  0.000003 -4.266587  0.004123
mix: Pulay -- inversion failed, > SVD [rank/size] 11 / 19
   scf:   25   -35677.202987   -35677.202985   -35677.203123  0.000063 -4.266811  0.001003
mix: Pulay -- inversion failed, > SVD [rank/size] 10 / 19
   scf:   26   -35677.202985   -35677.202985   -35677.203123  0.000006 -4.266824  0.000924

SCF Convergence by DM+H criterion
max |DM_out - DM_in|         :     0.0000056184
max |H_out - H_in|      (eV) :     0.0009239587
SCF cycle converged after 26 iterations

Using DM_out to compute the final energy and forces
No. of atoms with KB's overlaping orbs in proc 0. Max # of overlaps:      60     221

siesta: E_KS(eV) =           -35677.2030

siesta: E_KS - E_eggbox =    -35677.2030

siesta: Atomic forces (eV/Ang):
----------------------------------------
   Tot   -0.006237   -0.005252   -0.001538
----------------------------------------
   Max    0.443923
   Res    0.092144    sqrt( Sum f_i^2 / 3N )
----------------------------------------
   Max    0.443923    constrained

Stress tensor Voigt[x,y,z,yz,xz,xy] (kbar):      -17.68      -19.64        0.06        0.00        0.00       -0.00
(Free)E + p*V (eV/cell)   -35579.0332
Target enthalpy (eV/cell)   -35677.2031

siesta: Program's energy decomposition (eV):
siesta: Ebs     =    -12150.777285
siesta: Eions   =     55608.971781
siesta: Ena     =     10755.827317
siesta: Ekin    =     25544.550119
siesta: Enl     =     -4239.197111
siesta: Eso     =         0.000000
siesta: Edftu   =         0.000000
siesta: DEna    =      -902.314795
siesta: DUscf   =        76.355247
siesta: DUext   =         0.000000
siesta: Ex      =    -10069.300224
siesta: Ec      =     -1234.151757
siesta: Exc     =    -11303.451981
siesta: EbV     =         0.000000
siesta: eta*DQ  =         0.000000
siesta: Emadel  =         0.000000
siesta: Emeta   =         0.000000
siesta: Emolmec =         0.000000
siesta: Ekinion =         0.000000
siesta: Eharris =    -35677.202985
siesta: Etot    =    -35677.202985
siesta: FreeEng =    -35677.203123

siesta: Final energy (eV):
siesta:  Band Struct. =  -12150.777285
siesta:       Kinetic =   25544.550119
siesta:       Hartree =  163832.513448
siesta:         Edftu =       0.000000
siesta:       Eso     =       0.000000
siesta:    Ext. field =       0.000000
siesta:         Exch. =  -10069.300224
siesta:         Corr. =   -1234.151757
siesta:     Bulk bias =       0.000000
siesta:   Exch.-corr. =  -11303.451981
siesta:  Ion-electron = -351009.140851
siesta:       Ion-ion =  137258.326280
siesta:       Ekinion =       0.000000
siesta: D3 dispersion =       0.000000
siesta:         Total =  -35677.202985
siesta:         Fermi =      -4.266824

siesta: Atomic forces (eV/Ang):
siesta:      1   -0.000117    0.117876   -0.000001
siesta:      2    0.002685    0.007543    0.000886
siesta:      3    0.002493   -0.004255    0.000749
siesta:      4   -0.198251   -0.243235   -0.000270
siesta:      5   -0.142256   -0.105373   -0.000005
siesta:      6    0.025500    0.010423    0.000026
siesta:      7   -0.099204   -0.093028   -0.000010
siesta:      8    0.011074    0.119278    0.000006
siesta:      9   -0.035183   -0.076094    0.000001
siesta:     10   -0.035245    0.076409   -0.000000
siesta:     11    0.011348   -0.119213    0.000007
siesta:     12    0.017545    0.117951   -0.000001
siesta:     13   -0.019891   -0.110254    0.000007
siesta:     14   -0.162609    0.127809    0.000017
siesta:     15    0.110441   -0.039004   -0.000008
siesta:     16   -0.134557    0.441981   -0.000302
siesta:     17   -0.196867    0.038670   -0.000017
siesta:     18    0.233287   -0.130040   -0.000605
siesta:     19   -0.008346   -0.003482    0.000202
siesta:     20    0.000757   -0.006921    0.006072
siesta:     21    0.000550   -0.002944    0.000965
siesta:     22   -0.000937    0.001731    0.000960
siesta:     23    0.000614    0.007252    0.006249
siesta:     24   -0.008701    0.000514    0.000154
siesta:     25    0.007978    0.002168    0.005954
siesta:     26    0.232995    0.130923   -0.000690
siesta:     27    0.006842   -0.001117    0.005285
siesta:     28    0.001029    0.004498    0.000880
siesta:     29   -0.000203    0.112800   -0.000008
siesta:     30    0.002769   -0.104812    0.000003
siesta:     31    0.002479    0.105077    0.000004
siesta:     32   -0.000607    0.117824   -0.000007
siesta:     33    0.030383   -0.235378    0.000134
siesta:     34    0.011672    0.238682    0.000024
siesta:     35    0.001045   -0.282386   -0.000712
siesta:     36   -0.004900    0.007076    0.000931
siesta:     37    0.004295   -0.009321    0.004712
siesta:     38    0.003984    0.009359    0.005200
siesta:     39   -0.003643   -0.009046    0.000263
siesta:     40    0.000907    0.282484   -0.000506
siesta:     41    0.012337   -0.238009   -0.000016
siesta:     42    0.029871    0.235696    0.000117
siesta:     43   -0.000470   -0.117879   -0.000012
siesta:     44   -0.013433    0.097270   -0.000002
siesta:     45    0.004320   -0.085596    0.000000
siesta:     46    0.004182    0.085755   -0.000000
siesta:     47   -0.013460   -0.096984   -0.000005
siesta:     48   -0.099598    0.093550   -0.000008
siesta:     49    0.025359   -0.010594    0.000016
siesta:     50   -0.143059    0.105849   -0.000038
siesta:     51   -0.199216    0.243109   -0.000225
siesta:     52    0.001948   -0.007559    0.000959
siesta:     53   -0.196803   -0.038999   -0.000033
siesta:     54   -0.135151   -0.440887   -0.000322
siesta:     55    0.110217    0.038618   -0.000016
siesta:     56    0.022645   -0.076952    0.000001
siesta:     57    0.022758    0.077132   -0.000000
siesta:     58   -0.021268   -0.076727    0.000001
siesta:     59   -0.064533    0.076067    0.000000
siesta:     60    0.040993   -0.041651    0.000001
siesta:     61    0.054938    0.040459   -0.000000
siesta:     62   -0.055068   -0.045465    0.000001
siesta:     63   -0.011645    0.040021   -0.000011
siesta:     64    0.030818   -0.064977    0.000002
siesta:     65    0.120649    0.059233   -0.000006
siesta:     66   -0.171359   -0.166996   -0.000012
siesta:     67   -0.194257    0.148761    0.000039
siesta:     68    0.116282   -0.052618    0.000003
siesta:     69    0.116805    0.052717    0.000009
siesta:     70   -0.193669   -0.148263    0.000034
siesta:     71   -0.171904    0.166474   -0.000009
siesta:     72    0.120293   -0.058453   -0.000006
siesta:     73    0.031373    0.064625    0.000001
siesta:     74   -0.011660   -0.039359   -0.000010
siesta:     75   -0.055213    0.045193   -0.000001
siesta:     76    0.054818   -0.040023    0.000003
siesta:     77    0.041261    0.041442   -0.000001
siesta:     78   -0.064592   -0.075637    0.000002
siesta:     79   -0.021305    0.076761   -0.000000
siesta:     80   -0.006198   -0.071587    0.000006
siesta:     81    0.036400    0.125320   -0.000002
siesta:     82    0.018331   -0.120229    0.000000
siesta:     83   -0.162645   -0.127227    0.000029
siesta:     84   -0.019885    0.110259    0.000006
siesta:     85    0.017748   -0.117444    0.000002
siesta:     86    0.026121    0.069822   -0.000000
siesta:     87    0.000387   -0.114482    0.000000
siesta:     88    0.000325    0.114592   -0.000001
siesta:     89    0.025986   -0.069839    0.000001
siesta:     90   -0.006250    0.071881    0.000003
siesta:     91    0.036438   -0.125688   -0.000001
siesta:     92    0.018348    0.120637   -0.000003
siesta:     93    0.077218    0.045453   -0.000001
siesta:     94    0.098947   -0.092850    0.000003
siesta:     95    0.204531   -0.056173    0.000109
siesta:     96    0.225948    0.103305    0.000128
siesta:     97   -0.119110    0.071927   -0.000021
siesta:     98   -0.235539    0.008722   -0.000386
siesta:     99   -0.089750   -0.429699   -0.000013
siesta:    100   -0.089802    0.428157   -0.000006
siesta:    101   -0.235738   -0.007845   -0.000389
siesta:    102   -0.118108   -0.072323   -0.000022
siesta:    103    0.225601   -0.102999    0.000134
siesta:    104   -0.049059    0.143664   -0.000020
siesta:    105    0.204614    0.056698    0.000128
siesta:    106    0.077751   -0.045684   -0.000006
siesta:    107   -0.049184   -0.144630   -0.000017
siesta:    108   -0.029419    0.234891    0.000089
siesta:    109   -0.000177   -0.112667   -0.000019
siesta:    110    0.200969   -0.244026   -0.000225
siesta:    111   -0.037231   -0.124239   -0.000001
siesta:    112   -0.018302    0.120974   -0.000003
siesta:    113    0.054759   -0.044548    0.000013
siesta:    114    0.014180    0.039140   -0.000043
siesta:    115    0.046741   -0.144194    0.000030
siesta:    116   -0.224241    0.106061    0.000131
siesta:    117    0.172291   -0.166375    0.000032
siesta:    118    0.195871    0.146595   -0.000010
siesta:    119    0.089820   -0.431266   -0.000148
siesta:    120    0.089568    0.428760   -0.000055
siesta:    121    0.195271   -0.146093   -0.000029
siesta:    122    0.172784    0.165599    0.000037
siesta:    123   -0.224183   -0.105177    0.000086
siesta:    124    0.046752    0.142936    0.000014
siesta:    125    0.013759   -0.038448   -0.000023
siesta:    126    0.055094    0.044250    0.000005
siesta:    127   -0.018504   -0.120285    0.000005
siesta:    128   -0.037101    0.124024   -0.000004
siesta:    129    0.065188   -0.074631    0.000001
siesta:    130   -0.013880   -0.237781    0.000000
siesta:    131    0.035653   -0.074883    0.000001
siesta:    132    0.035706    0.075197    0.000002
siesta:    133   -0.026056   -0.069287    0.000001
siesta:    134    0.065287    0.074981   -0.000002
siesta:    135    0.021700   -0.075964    0.000002
siesta:    136   -0.000586    0.114083   -0.000001
siesta:    137   -0.000733   -0.113914    0.000000
siesta:    138   -0.022245   -0.077044    0.000001
siesta:    139   -0.022204    0.077250   -0.000001
siesta:    140   -0.000156   -0.118031    0.000000
siesta:    141   -0.000146    0.114247   -0.000001
siesta:    142   -0.041203   -0.041533    0.000002
siesta:    143   -0.052934    0.040943    0.000001
siesta:    144   -0.000847   -0.131829    0.000002
siesta:    145    0.000400    0.122563    0.000005
siesta:    146   -0.031663   -0.065512    0.000016
siesta:    147   -0.117408    0.060417   -0.000024
siesta:    148   -0.000417   -0.273408    0.000001
siesta:    149    0.007189    0.071012    0.000005
siesta:    150   -0.000622    0.267829    0.000014
siesta:    151   -0.114937    0.053358    0.000032
siesta:    152   -0.000521   -0.268319    0.000007
siesta:    153   -0.000427    0.271857    0.000005
siesta:    154   -0.117413   -0.059383   -0.000022
siesta:    155   -0.032134    0.065055    0.000009
siesta:    156    0.000309   -0.122120    0.000006
siesta:    157   -0.000754    0.131121   -0.000000
siesta:    158   -0.053240   -0.040345    0.000002
siesta:    159   -0.041292    0.041345   -0.000000
siesta:    160   -0.000206   -0.113940    0.000001
siesta:    161    0.021822    0.076028    0.000000
siesta:    162   -0.113981   -0.053418    0.000028
siesta:    163    0.020889   -0.108182    0.000005
siesta:    164   -0.026092    0.069316   -0.000001
siesta:    165   -0.077938    0.046723    0.000015
siesta:    166   -0.000897   -0.001900    0.003009
siesta:    167   -0.000012   -0.005725    0.001690
siesta:    168    0.001427    0.004909    0.001253
siesta:    169    0.162874    0.125955   -0.000008
siesta:    170   -0.005156    0.002561    0.002243
siesta:    171   -0.007510    0.003725    0.000507
siesta:    172    0.133910   -0.441616    0.000062
siesta:    173   -0.111797    0.034762   -0.000050
siesta:    174    0.141489   -0.104454    0.000016
siesta:    175   -0.025856    0.009973    0.000009
siesta:    176   -0.018294   -0.116646    0.000008
siesta:    177    0.013903    0.096848   -0.000002
siesta:    178   -0.002965   -0.104345    0.000003
siesta:    179   -0.002843    0.104665    0.000005
siesta:    180    0.014082   -0.096485   -0.000011
siesta:    181    0.099138    0.093388    0.000016
siesta:    182   -0.029778   -0.234243    0.000106
siesta:    183   -0.013816    0.238375    0.000081
siesta:    184    0.202651    0.244493   -0.000218
siesta:    185   -0.003062    0.007473    0.001363
siesta:    186   -0.003124   -0.006675    0.003178
siesta:    187   -0.002756    0.006895    0.004044
siesta:    188   -0.004000   -0.006257    0.000863
siesta:    189   -0.005067   -0.001663    0.000768
siesta:    190   -0.007123   -0.002749    0.000914
siesta:    191   -0.001070   -0.002662    0.001603
siesta:    192   -0.112213   -0.034446   -0.000078
siesta:    193   -0.201047   -0.056145    0.000090
siesta:    194    0.197596    0.042159    0.000198
siesta:    195   -0.229875   -0.131173   -0.000695
siesta:    196    0.119049    0.071174    0.000384
siesta:    197    0.242651    0.005396   -0.000113
siesta:    198    0.133280    0.443923    0.000189
siesta:    199    0.005236    0.000933    0.001940
siesta:    200    0.242474   -0.004540   -0.000153
siesta:    201    0.117441   -0.072130    0.000257
siesta:    202   -0.230356    0.132682   -0.000464
siesta:    203    0.197486   -0.042358    0.000066
siesta:    204    0.003454   -0.003694    0.001907
siesta:    205   -0.078350   -0.046872   -0.000006
siesta:    206   -0.202026    0.057147    0.000080
siesta:    207   -0.025694   -0.010020   -0.000007
siesta:    208   -0.018128    0.117227    0.000011
siesta:    209   -0.011969   -0.117837    0.000002
siesta:    210   -0.004549    0.085411    0.000002
siesta:    211    0.142171    0.105044   -0.000004
siesta:    212   -0.011666    0.118099    0.000001
siesta:    213    0.006917   -0.070749    0.000005
siesta:    214    0.020799    0.108501   -0.000000
siesta:    215    0.162918   -0.125428    0.000013
siesta:    216   -0.004707   -0.085235   -0.000000
siesta:    217   -0.006826   -0.006169   -0.004134
siesta:    218   -0.006893    0.005405   -0.003201
siesta:    219   -0.002443   -0.006736   -0.003281
siesta:    220   -0.003618    0.007438   -0.001004
siesta:    221   -0.000390   -0.006572   -0.001219
siesta:    222    0.004211   -0.009150    0.001719
siesta:    223    0.002953   -0.003632    0.005168
siesta:    224    0.004775    0.002522    0.005719
siesta:    225    0.004729    0.009263    0.005118
siesta:    226   -0.002516    0.002647   -0.004888
siesta:    227    0.000054    0.007739    0.002537
siesta:    228   -0.002516   -0.003336   -0.004783
siesta:    229    0.018459    0.014482    0.023809
siesta:    230   -0.016538   -0.039033    0.032663
siesta:    231    0.003936   -0.000522   -0.002970
siesta:    232    0.000310   -0.005325    0.020111
siesta:    233   -0.001701   -0.002588   -0.000485
siesta:    234    0.019207    0.021534   -0.017850
siesta:    235    0.004938   -0.028463   -0.013300
siesta:    236   -0.050126    0.000958   -0.013887
siesta:    237    0.013908   -0.009192    0.007504
siesta:    238    0.005621    0.011766    0.000894
siesta:    239   -0.009905   -0.000875   -0.033815
siesta:    240   -0.004295    0.025603   -0.034520
siesta:    241    0.001600    0.002335   -0.029179
siesta: ----------------------------------------
siesta:    Tot   -0.006237   -0.005252   -0.001538

siesta: Stress tensor (static) (eV/Ang**3):
siesta:    -0.011033   -0.000002    0.000002
siesta:    -0.000002   -0.012259    0.000000
siesta:     0.000002    0.000000    0.000039

siesta: Cell volume =      12665.586541 Ang**3

siesta: Pressure (static):
siesta:                Solid            Molecule  Units
siesta:           0.00008442          0.00009446  Ry/Bohr**3
siesta:           0.00775092          0.00867278  eV/Ang**3
siesta:          12.41833943         13.89532440  kBar
(Free)E+ p_basis*V_orbitals  =      -35578.071823
(Free)Eharris+ p_basis*V_orbitals  =      -35578.071823

siesta: Electric dipole (a.u.)  =    0.000000    0.000000   -0.568889
siesta: Electric dipole (Debye) =    0.000000    0.000000   -1.445971

cite: Please indicate the Siesta version in published work: unreleased 21e88d34b (2025-02-04)
cite: This calculation has made use of features in the following articles
cite: which we encourage you to cite in published work.
cite: (Please see "siesta.bib" for a BibTeX file.)
        Primary SIESTA paper
          DOI: www.doi.org/10.1088/0953-8984/14/11/302


>> End of run:  22-DEC-2025  16:28:17
Job completed
