Executable      : /opt/software/pc2/Siesta/5.2.2/siesta-5.2.2-mpi/build/Src/siesta
Version         : unreleased 21e88d34b (2025-02-04)
Architecture    : x86_64
Compiler version: GNU-13.2.0
Compiler flags  : -O3 -march=native -lscalapack -fallow-argument-mismatch -O3 -march=native
Parallelisations: MPI
NetCDF support
NetCDF-4 support
NetCDF-4 MPI-IO support
Lua support
Native ELPA support
ELSI support. Solvers:
   ELPA (external) 
   NTPoly
   OMM
DFT-D3 support

Runtime information:
* Directory : /scratch/hpc-prf-meop/Projects/2DMaterNanopore/DFT+NEGF+ML/DFT/GRAPHENE_NANOPORE_BIOMOL_ALA/SGLPT_THETA_270_PHI_000_PSI_000
* Running on 64 nodes in parallel.
>> Start of run:  22-DEC-2025  16:03:38

                           *********************** 
                           *  WELCOME TO SIESTA  * 
                           *********************** 

 NOTE: Siesta V5 introduces some new defaults for basis-set generation
 NOTE: which might lead to slightly different numerical results.
 NOTE: Please see the manual for full details and compatibility measures.


reinit: Reading from standard input
reinit: Dumping input in INPUT_TMP.84396
************************** Dump of input data file ****************************
SystemLabel	siesta
NumberOfSpecies	4
NumberOfAtoms	241
%block ChemicalSpecieslabel
    1 6 C
    2 1 H
    3 7 N
    4 8 O
%endblock ChemicalSpecieslabel
LatticeConstant	1.0 Ang
%block LatticeVectors
    24.685487983260018     0.000000000000000     0.000000000000000
    0.000000000000000     25.653911637872664     0.000000000000000
    0.000000000000000     0.000000000000000     19.999999987438091
%endblock LatticeVectors
AtomicCoordinatesFormat  Ang
%block AtomicCoordinatesAndAtomicSpecies
     0.617137199     24.228694325      9.999999993 1
    16.661877175     17.787507251      9.999999999 1
    15.404068592     18.511132114      9.999999994 1
    15.428429989     19.953042385      9.999999993 1
    16.662704388     20.665651042      9.999999993 1
    16.662704388     22.090868355      9.999999993 1
    15.428429989     22.803477011      9.999999993 1
    17.896978787     24.228694325      9.999999993 1
    19.131253187     24.941302981      9.999999993 1
    19.131253187      0.712608657      9.999999993 1
    17.896978787      1.425217313      9.999999993 1
    17.896978787      2.850434626      9.999999993 1
    19.131253187      3.563043283      9.999999993 1
    19.131253187      4.988260596      9.999999993 1
    17.896978787      5.700869253      9.999999993 1
    17.896978787      7.126086567      9.999999993 1
    19.131253187      7.838695223      9.999999993 1
    19.131253187      9.263912536      9.999999993 1
    17.892274080      9.977343270     10.000000008 1
    17.904289481     11.390574713      9.999999998 1
    19.103064970     12.099774496      9.999999989 1
    19.103064968     13.554137138      9.999999988 1
    17.904289479     14.263336921      9.999999996 1
    17.892274081     15.676568367     10.000000006 1
    16.677796396     16.388168018     10.000000006 1
    19.131253187     16.389999102      9.999999993 1
    16.677796396      9.265743615     10.000000009 1
    15.404068591      7.142779522      9.999999986 1
    12.959881192     24.228694325      9.999999993 1
    14.194155590     24.941302981      9.999999993 1
    14.194155590      0.712608657      9.999999993 1
    12.959881192      2.850434626      9.999999993 1
    14.194155590      3.563043283      9.999999993 1
    14.194155590      4.988260596      9.999999993 1
    12.959881192      5.700869253      9.999999993 1
    12.959881187      7.133036192      9.999999994 1
    14.186467353      7.828429446      9.999999983 1
    14.186467358     17.825482185      9.999999998 1
    12.959881191     18.520875446      9.999999986 1
    12.959881192     19.953042385      9.999999993 1
    14.194155590     20.665651042      9.999999993 1
    14.194155590     22.090868355      9.999999993 1
    12.959881192     22.803477011      9.999999993 1
    15.428429989     24.228694325      9.999999993 1
    16.662704388     24.941302981      9.999999993 1
    16.662704388      0.712608657      9.999999993 1
    15.428429989      1.425217313      9.999999993 1
    15.428429989      2.850434626      9.999999993 1
    16.662704388      3.563043283      9.999999993 1
    16.662704388      4.988260596      9.999999993 1
    15.428429989      5.700869253      9.999999993 1
    16.661877175      7.866404380      9.999999988 1
    19.131253187     17.815216416      9.999999993 1
    17.896978787     18.527825072      9.999999993 1
    17.896978787     19.953042385      9.999999993 1
    24.068350784     24.941302981      9.999999993 1
    24.068350784      0.712608657      9.999999993 1
    22.834076384      1.425217313      9.999999993 1
    22.834076384      2.850434626      9.999999993 1
    24.068350784      3.563043283      9.999999993 1
    24.068350784      4.988260596      9.999999993 1
    22.834076384      5.700869253      9.999999993 1
    22.834076384      7.126086567      9.999999993 1
    24.068350784      7.838695223      9.999999993 1
    24.068350784      9.263912536      9.999999993 1
    22.834076384      9.976521193      9.999999993 1
    22.834076384     11.401738506      9.999999993 1
    24.068350784     12.114347162      9.999999993 1
    24.068350784     13.539564475      9.999999993 1
    22.834076384     14.252173132      9.999999993 1
    22.834076384     15.677390445      9.999999993 1
    24.068350784     16.389999102      9.999999993 1
    24.068350784     17.815216416      9.999999993 1
    22.834076384     18.527825072      9.999999993 1
    22.834076384     19.953042385      9.999999993 1
    24.068350784     20.665651042      9.999999993 1
    24.068350784     22.090868355      9.999999993 1
    22.834076384     22.803477011      9.999999993 1
    22.834076384     24.228694325      9.999999993 1
    20.365527586     22.803477011      9.999999993 1
    21.599801985     22.090868355      9.999999993 1
    21.599801985     20.665651042      9.999999993 1
    19.131253187     20.665651042      9.999999993 1
    19.131253187     22.090868355      9.999999993 1
    17.896978787     22.803477011      9.999999993 1
    20.365527586     24.228694325      9.999999993 1
    21.599801985     24.941302981      9.999999993 1
    21.599801985      0.712608657      9.999999993 1
    20.365527586      1.425217313      9.999999993 1
    20.365527586      2.850434626      9.999999993 1
    21.599801985      3.563043283      9.999999993 1
    21.599801985      4.988260596      9.999999993 1
    20.365527586      5.700869253      9.999999993 1
    10.491332393     22.803477011      9.999999993 1
    20.365527586      7.126086567      9.999999993 1
    21.599801985      9.263912536      9.999999993 1
    20.365527586      9.976521193      9.999999993 1
    20.365527586     11.401738506      9.999999993 1
    21.599801985     12.114347162      9.999999993 1
    21.599801985     13.539564475      9.999999993 1
    20.365527586     14.252173132      9.999999993 1
    20.365527586     15.677390445      9.999999993 1
    21.599801985     16.389999102      9.999999993 1
    21.599801985     17.815216416      9.999999993 1
    20.365527586     18.527825072      9.999999993 1
    20.365527586     19.953042385      9.999999993 1
    21.599801985      7.838695223      9.999999993 1
    11.725606792     22.090868355      9.999999993 1
    12.959881192      1.425217313      9.999999993 1
    10.491332393     19.953042385      9.999999993 1
     4.319960397      3.563043283      9.999999993 1
     4.319960397      4.988260596      9.999999993 1
     3.085685998      5.700869253      9.999999993 1
     3.085685998      7.126086567      9.999999993 1
     4.319960397      7.838695223      9.999999993 1
     4.319960397      9.263912536      9.999999993 1
     3.085685998      9.976521193      9.999999993 1
     3.085685998     11.401738506      9.999999993 1
     4.319960397     12.114347162      9.999999993 1
     4.319960397     13.539564475      9.999999993 1
     3.085685998     14.252173132      9.999999993 1
     3.085685998     15.677390445      9.999999993 1
     4.319960397     16.389999102      9.999999993 1
     4.319960397     17.815216416      9.999999993 1
     3.085685998     18.527825072      9.999999993 1
     3.085685998     19.953042385      9.999999993 1
     4.319960397     20.665651042      9.999999993 1
     4.319960397     22.090868355      9.999999993 1
     3.085685998     22.803477011      9.999999993 1
    11.725606792     20.665651042      9.999999993 1
     6.788509196     24.941302981      9.999999993 1
     6.788509196      0.712608657      9.999999993 1
     5.554234797      1.425217313      9.999999993 1
     3.085685998      2.850434626      9.999999993 1
     3.085685998      1.425217313      9.999999993 1
     4.319960397      0.712608657      9.999999993 1
     4.319960397     24.941302981      9.999999993 1
     1.851411599     24.941302981      9.999999993 1
     1.851411599      0.712608657      9.999999993 1
     0.617137199      1.425217313      9.999999993 1
     0.617137199      2.850434626      9.999999993 1
     1.851411599      3.563043283      9.999999993 1
     1.851411599      4.988260596      9.999999993 1
     0.617137199      5.700869253      9.999999993 1
     0.617137199      7.126086567      9.999999993 1
     1.851411599      7.838695223      9.999999993 1
     1.851411599      9.263912536      9.999999993 1
     0.617137199      9.976521193      9.999999993 1
     5.554234797      2.850434626      9.999999993 1
     0.617137199     11.401738506      9.999999993 1
     1.851411599     13.539564475      9.999999993 1
     0.617137199     14.252173132      9.999999993 1
     0.617137199     15.677390445      9.999999993 1
     1.851411599     16.389999102      9.999999993 1
     1.851411599     17.815216416      9.999999993 1
     0.617137199     18.527825072      9.999999993 1
     0.617137199     19.953042385      9.999999993 1
     1.851411599     20.665651042      9.999999993 1
     1.851411599     22.090868355      9.999999993 1
     0.617137199     22.803477011      9.999999993 1
     3.085685998     24.228694325      9.999999993 1
     1.851411599     12.114347162      9.999999993 1
     6.788509196      3.563043283      9.999999993 1
     5.554234797     24.228694325      9.999999993 1
     5.554234797      5.700869253      9.999999993 1
     8.027488304      9.977343270      9.999999986 1
     8.015472905     11.390574713     10.000000004 1
     8.015472907     14.263336922     10.000000000 1
     6.788509196      4.988260596      9.999999993 1
     9.241965996     16.388168021     10.000000023 1
     9.257885205     17.787507251     10.000000006 1
     8.022783595     18.527825072      9.999999993 1
     8.022783595     19.953042385      9.999999993 1
     9.257057994     20.665651042      9.999999993 1
     9.257057994     22.090868355      9.999999993 1
     8.022783595     22.803477011      9.999999993 1
    10.491332393     24.228694325      9.999999993 1
    11.725606792     24.941302981      9.999999993 1
    11.725606792      0.712608657      9.999999993 1
    10.491332393      1.425217313      9.999999993 1
    10.491332393      2.850434626      9.999999993 1
    11.725606792      3.563043283      9.999999993 1
    11.725606792      4.988260596      9.999999993 1
    10.491332393      5.700869253      9.999999993 1
    10.515693795      7.142779522     10.000000027 1
    11.733295023      7.828429455     10.000000025 1
    11.733295023     17.825482186      9.999999992 1
    10.515693793     18.511132117      9.999999999 1
     9.241965990      9.265743609      9.999999987 1
     9.257885209      7.866404384     10.000000000 1
     8.027488313     15.676568366     10.000000023 1
     8.022783595      5.700869253      9.999999993 1
     5.554234797      7.126086567      9.999999993 1
     6.788509196      7.838695223      9.999999993 1
     6.788509196      9.263912536      9.999999993 1
     5.554234797      9.976521193      9.999999993 1
     5.554234797     11.401738506      9.999999993 1
     8.022783595      7.126086567      9.999999993 1
     6.816697412     13.554137139      9.999999981 1
     5.554234797     14.252173132      9.999999993 1
     5.554234797     15.677390445      9.999999993 1
     6.788509196     16.389999102      9.999999993 1
     6.788509196     17.815216416      9.999999993 1
     6.816697409     12.099774496      9.999999990 1
     5.554234797     19.953042385      9.999999993 1
     5.554234797     18.527825072      9.999999993 1
     9.257057994      3.563043283      9.999999993 1
     8.022783595      2.850434626      9.999999993 1
     8.022783595      1.425217313      9.999999993 1
     9.257057994      0.712608657      9.999999993 1
     9.257057994      4.988260596      9.999999993 1
     8.022783595     24.228694325      9.999999993 1
     5.554234797     22.803477011      9.999999993 1
     6.788509196     22.090868355      9.999999993 1
     6.788509196     20.665651042      9.999999993 1
     9.257057994     24.941302981      9.999999993 1
    15.744565851     15.799432360     10.000000001 2
    15.744565859      9.854479278      9.999999998 2
    14.143251523     16.722826843     10.000000023 2
    14.143251522      8.931084792      9.999999981 2
    11.776510846     16.722826837      9.999999998 2
    10.175196553     15.799432385     10.000000005 2
     8.992643581     13.750494156      9.999999994 2
     8.992643579     11.903417481      9.999999987 2
    10.175196533      9.854479269      9.999999992 2
    16.927118815     11.903417488     10.000000007 2
    11.776510861      8.931084796      9.999999995 2
    16.927118811     13.750494130      9.999999987 2
    12.256280525     13.201415307     14.270908254 1
    13.645714070     12.823728367     14.859061958 1
    11.334798758     13.664356155     15.410171156 1
    13.244006874     11.207003871     14.027085986 2
    12.433702269     14.046923566     13.563779532 2
    10.377411732     14.075769538     15.014969611 2
    11.105329424     12.811075390     16.092859069 2
    11.857925771     14.446907767     16.003368360 2
    10.775474357     11.710289193     13.893685778 2
    11.549662048     12.227266424     12.500000027 2
    11.710152911     11.990448491     13.507918958 3
    14.024511121     11.554567391     14.570225683 4
    14.308076251     13.608176406     15.524103060 4
%endblock AtomicCoordinatesAndAtomicSpecies
###K-Point Mesh###
%block kgrid_Monkhorst_Pack
1   0   0   0.0
0   1   0   0.0
0   0   1   0.0
%endblock kgrid_Monkhorst_Pack
###SCF PARAMS###
MeshCutoff          250 Ry
PAO.BasisType       split
PAO.BasisSize       DZP
PAO.EnergyShift     0.1 eV
XC.functional VDW
XC.authors KBM
MaxSCFIterations   2000
SCF.MustConverge    T
DM.MixingWeight    0.01
DM.NumberPulay     20
DM.Tolerance        1.d-5
DM.UseSaveDM        T
ElectronicTemperature 300 K
DirectPhi           T
###DIAGONALIZATION###
SolutionMethod      diagon
###DIAG-ALGORITHM###
# Diag.Algorithm ELPA
###CACHE WAVEFUNC###
# Diag.WFS.Cache cdf
###PARALLELIZATION###
Diag.ParallelOverK  F
###MOLECULAR DYNAMICS###
MD.TypeOfRun        CG
MD.NumCGsteps       0
MD.UseSaveXV        T
MD.UseSaveCG        T
************************** End of input data file *****************************

reinit: -----------------------------------------------------------------------
reinit: System Name: 
reinit: -----------------------------------------------------------------------
reinit: System Label: siesta
reinit: -----------------------------------------------------------------------

initatom: Reading input for the pseudopotentials and atomic orbitals ----------
Species number:   1 Atomic number:    6 Label: C
Species number:   2 Atomic number:    1 Label: H
Species number:   3 Atomic number:    7 Label: N
Species number:   4 Atomic number:    8 Label: O

Ground state valence configuration (from tables):   2s02  2p02  3d00  4f00
Ground state valence configuration (from tables):   1s01  2p00  3d00  4f00
Ground state valence configuration (from tables):   2s02  2p03  3d00  4f00
Ground state valence configuration (from tables):   2s02  2p04  3d00  4f00

---- Processing specs for species: C
Reading pseudopotential information in formatted form from:
  C.psf

---- Processing specs for species: H
Reading pseudopotential information in formatted form from:
  H.psf

---- Processing specs for species: N
Reading pseudopotential information in formatted form from:
  N.psf

---- Processing specs for species: O
Reading pseudopotential information in formatted form from:
  O.psf

---- Pseudopotential check for  C

Pseudopotential generated from a fully relativistic atomic calculation
There are spin-orbit semi-local pseudopotentials available

Pseudized shells:
2s( 2.00) rc: 1.01
2p( 2.00) rc: 1.28
3d( 0.00) rc: 1.60
4f( 0.00) rc: 1.60
Valence configuration for ps generation: (assumed as above)

---- Pseudopotential check for  H

Pseudopotential generated from a fully relativistic atomic calculation
There are spin-orbit semi-local pseudopotentials available

Pseudized shells:
1s( 1.00) rc: 1.31
2p( 0.00) rc: 1.13
3d( 0.00) rc: 1.09
4f( 0.00) rc: 1.14
Valence configuration for ps generation: (assumed as above)

---- Pseudopotential check for N 

Pseudopotential generated from a fully relativistic atomic calculation
There are spin-orbit semi-local pseudopotentials available

Pseudized shells:
2s( 2.00) rc: 1.29
2p( 3.00) rc: 1.42
3d( 0.00) rc: 1.74
4f( 0.00) rc: 2.98
Valence configuration for ps generation: (assumed as above)

---- Pseudopotential check for  O

Pseudopotential generated from a fully relativistic atomic calculation
There are spin-orbit semi-local pseudopotentials available

Pseudized shells:
2s( 2.00) rc: 0.77
2p( 4.00) rc: 1.77
3d( 0.00) rc: 1.07
4f( 0.00) rc: 1.66
Valence configuration for ps generation: (assumed as above)
For C, standard SIESTA heuristics set lmxkb to 3
 (one more than the basis l, including polarization orbitals).
Use PS.lmax or PS.KBprojectors blocks to override.
For H, standard SIESTA heuristics set lmxkb to 2
 (one more than the basis l, including polarization orbitals).
Use PS.lmax or PS.KBprojectors blocks to override.
For N, standard SIESTA heuristics set lmxkb to 3
 (one more than the basis l, including polarization orbitals).
Use PS.lmax or PS.KBprojectors blocks to override.
For O, standard SIESTA heuristics set lmxkb to 3
 (one more than the basis l, including polarization orbitals).
Use PS.lmax or PS.KBprojectors blocks to override.

<basis_specs>
===============================================================================
C                    Z=   6    Mass=  12.011        Charge= 0.17977+309
Lmxo=2 Lmxkb= 3    BasisType=split      Semic=F
L=0  Nsemic=0  Cnfigmx=2
          i=1  nzeta=2  polorb=0  (2s)
            splnorm:   0.15000    
               vcte:    40.000    
               rinn:  -0.90000    
               qcoe:    0.0000    
               qyuk:    0.0000    
               qwid:   0.10000E-01
                rcs:    0.0000      0.0000    
            lambdas:    1.0000      1.0000    
L=1  Nsemic=0  Cnfigmx=2
          i=1  nzeta=2  polorb=1  (2p)  (to be polarized perturbatively)
            splnorm:   0.15000    
               vcte:    40.000    
               rinn:  -0.90000    
               qcoe:    0.0000    
               qyuk:    0.0000    
               qwid:   0.10000E-01
                rcs:    0.0000      0.0000    
            lambdas:    1.0000      1.0000    
L=2  Nsemic=0  Cnfigmx=3
          i=1  nzeta=0  polorb=0  (3d)  (perturbative polarization orbital) (from 2p)
-------------------------------------------------------------------------------
L=0  Nkbl=1  erefs: 0.17977+309
L=1  Nkbl=1  erefs: 0.17977+309
L=2  Nkbl=1  erefs: 0.17977+309
L=3  Nkbl=1  erefs: 0.17977+309
===============================================================================
</basis_specs>

Using PAO.SplitTailNorm
atom: Called for C                     (Z =   6)
Maximum radius (at nrval) set to   50.00000 8518

read_vps: Pseudopotential generation method:
read_vps: ATM4.1.0  Troullier-Martins                       
Valence charge in pseudo generation:    4.00000

read_vps: Pseudopotential includes a core correction:
read_vps: Pseudo-core for xc-correction

xc_check: Exchange-correlation functional:
xc_check: VDW Klimes-Bowler-Michaelides
xc_check: WARNING: Pseudopotential generated with GGA PBE functional
V l=0 = -2*Zval/r beyond r=  1.3182
V l=1 = -2*Zval/r beyond r=  1.3464
V l=2 = -2*Zval/r beyond r=  1.5833
V l=3 = -2*Zval/r beyond r=  1.5786
All V_l potentials equal beyond r=  1.5770
This should be close to max(r_c) in ps generation
All pots = -2*Zval/r beyond r=  1.5833
Using small-core scheme (local charge) for Vlocal

VLOCAL_FROM_CHLOCAL: 99.0% of the norm of Vloc inside     17.455 Ry
VLOCAL_FROM_CHLOCAL: 99.9% of the norm of Vloc inside     39.780 Ry
atom: Maximum radius for chlocal:    1.88237
atom: Maximum radius for r*vlocal+2*Zval:    1.72643

KBgen: Kleinman-Bylander projectors: 
GHOST: No ghost state for L =  0
   l= 0   rc=  1.736877   el= -1.020388   Ekb=  8.249114   kbcos=  0.220505
GHOST: No ghost state for L =  1
   l= 1   rc=  1.735131   el= -0.401258   Ekb= -5.619827   kbcos= -0.328599
GHOST: No ghost state for L =  2
   l= 2   rc=  2.031796   el=  0.013225   Ekb= -0.930857   kbcos= -0.011208
GHOST: No ghost state for L =  3
   l= 3   rc=  2.292119   el=  0.019576   Ekb= -0.391040   kbcos= -0.001576

KBgen: Total number of Kleinman-Bylander projectors:  16
atom: -------------------------------------------------------------------------

atom: SANKEY-TYPE ORBITALS:
atom: Selected multiple-zeta basis: split     

SPLIT: Orbitals with angular momentum L= 0

SPLIT: Basis orbitals for state 2s

SPLIT: PAO cut-off radius determined from an
SPLIT: energy shift=  0.007350 Ry
Split based on tail norm

   izeta = 1
                 lambda =    1.000000
                     rc =    4.649135
                 energy =   -1.012056
                kinetic =    0.924199
    potential(screened) =   -1.936254
       potential(ionic) =   -5.500926

   izeta = 2
                 rmatch =    3.097535
              splitnorm =    0.150000
                 energy =   -0.753048
                kinetic =    1.677436
    potential(screened) =   -2.430485
       potential(ionic) =   -6.288589

SPLIT: Orbitals with angular momentum L= 1

SPLIT: Basis orbitals for state 2p

SPLIT: PAO cut-off radius determined from an
SPLIT: energy shift=  0.007350 Ry
Split based on tail norm

   izeta = 1
                 lambda =    1.000000
                     rc =    5.669310
                 energy =   -0.392975
                kinetic =    2.506148
    potential(screened) =   -2.899123
       potential(ionic) =   -6.340802

   izeta = 2
                 rmatch =    3.774182
              splitnorm =    0.150000
                 energy =   -0.275270
                kinetic =    3.603259
    potential(screened) =   -3.878528
       potential(ionic) =   -7.663255

POLgen: Perturbative polarization orbital with L=  2

POLgen: Polarization orbital for state 2p
Split based on tail norm

   izeta = 1
                     rc =    5.669310
                 energy =    1.122389
                kinetic =    2.278964
    potential(screened) =   -1.156575
       potential(ionic) =   -3.981653
atom: Total number of Sankey-type orbitals: 13

atm_pop: Valence configuration (for local Pseudopot. screening):
 2s( 2.00)                                                            
 2p( 2.00)                                                            
 3d( 0.00)                                                            
Vna: chval, zval:    4.00000   4.00000

Vna:  Cut-off radius for the neutral-atom potential:   5.669310
comcore: Pseudo-core radius Rcore=  1.772167

atom: _________________________________________________________________________

<basis_specs>
===============================================================================
H                    Z=   1    Mass=  1.0080        Charge= 0.17977+309
Lmxo=1 Lmxkb= 2    BasisType=split      Semic=F
L=0  Nsemic=0  Cnfigmx=1
          i=1  nzeta=2  polorb=1  (1s)  (to be polarized perturbatively)
            splnorm:   0.15000    
               vcte:    40.000    
               rinn:  -0.90000    
               qcoe:    0.0000    
               qyuk:    0.0000    
               qwid:   0.10000E-01
                rcs:    0.0000      0.0000    
            lambdas:    1.0000      1.0000    
L=1  Nsemic=0  Cnfigmx=2
          i=1  nzeta=0  polorb=0  (2p)  (perturbative polarization orbital) (from 1s)
-------------------------------------------------------------------------------
L=0  Nkbl=1  erefs: 0.17977+309
L=1  Nkbl=1  erefs: 0.17977+309
L=2  Nkbl=1  erefs: 0.17977+309
===============================================================================
</basis_specs>

Using PAO.SplitTailNorm
atom: Called for H                     (Z =   1)
Maximum radius (at nrval) set to   50.00000 8518

read_vps: Pseudopotential generation method:
read_vps: ATM4.1.0  Troullier-Martins                       
Valence charge in pseudo generation:    1.00000

xc_check: Exchange-correlation functional:
xc_check: VDW Klimes-Bowler-Michaelides
xc_check: WARNING: Pseudopotential generated with GGA PBE functional
V l=0 = -2*Zval/r beyond r=  1.3024
V l=1 = -2*Zval/r beyond r=  1.2802
V l=2 = -2*Zval/r beyond r=  1.2802
All V_l potentials equal beyond r=  1.3011
This should be close to max(r_c) in ps generation
All pots = -2*Zval/r beyond r=  1.3024
Using small-core scheme (local charge) for Vlocal

VLOCAL_FROM_CHLOCAL: 99.0% of the norm of Vloc inside     25.643 Ry
VLOCAL_FROM_CHLOCAL: 99.9% of the norm of Vloc inside     58.442 Ry
atom: Maximum radius for chlocal:    1.51933
atom: Maximum radius for r*vlocal+2*Zval:    1.37795

KBgen: Kleinman-Bylander projectors: 
GHOST: No ghost state for L =  0
   l= 0   rc=  1.452036   el= -0.494844   Ekb= -1.962033   kbcos= -0.366867
GHOST: No ghost state for L =  1
   l= 1   rc=  1.709150   el=  0.006534   Ekb= -0.631641   kbcos= -0.022353
GHOST: No ghost state for L =  2
   l= 2   rc=  2.001398   el=  0.013276   Ekb= -0.260152   kbcos= -0.002632

KBgen: Total number of Kleinman-Bylander projectors:   9
atom: -------------------------------------------------------------------------

atom: SANKEY-TYPE ORBITALS:
atom: Selected multiple-zeta basis: split     

SPLIT: Orbitals with angular momentum L= 0

SPLIT: Basis orbitals for state 1s

SPLIT: PAO cut-off radius determined from an
SPLIT: energy shift=  0.007350 Ry
Split based on tail norm

   izeta = 1
                 lambda =    1.000000
                     rc =    5.424839
                 energy =   -0.486555
                kinetic =    0.944729
    potential(screened) =   -1.431284
       potential(ionic) =   -1.937848

   izeta = 2
                 rmatch =    3.582433
              splitnorm =    0.150000
                 energy =   -0.330505
                kinetic =    1.688410
    potential(screened) =   -2.018915
       potential(ionic) =   -2.546203

POLgen: Perturbative polarization orbital with L=  1

POLgen: Polarization orbital for state 1s
Split based on tail norm

   izeta = 1
                     rc =    5.424839
                 energy =    0.650312
                kinetic =    1.305598
    potential(screened) =   -0.655287
       potential(ionic) =   -1.130048
atom: Total number of Sankey-type orbitals:  5

atm_pop: Valence configuration (for local Pseudopot. screening):
 1s( 1.00)                                                            
 2p( 0.00)                                                            
Vna: chval, zval:    1.00000   1.00000

Vna:  Cut-off radius for the neutral-atom potential:   5.424839

atom: _________________________________________________________________________

<basis_specs>
===============================================================================
N                    Z=   7    Mass=  14.007        Charge= 0.17977+309
Lmxo=2 Lmxkb= 3    BasisType=split      Semic=F
L=0  Nsemic=0  Cnfigmx=2
          i=1  nzeta=2  polorb=0  (2s)
            splnorm:   0.15000    
               vcte:    40.000    
               rinn:  -0.90000    
               qcoe:    0.0000    
               qyuk:    0.0000    
               qwid:   0.10000E-01
                rcs:    0.0000      0.0000    
            lambdas:    1.0000      1.0000    
L=1  Nsemic=0  Cnfigmx=2
          i=1  nzeta=2  polorb=1  (2p)  (to be polarized perturbatively)
            splnorm:   0.15000    
               vcte:    40.000    
               rinn:  -0.90000    
               qcoe:    0.0000    
               qyuk:    0.0000    
               qwid:   0.10000E-01
                rcs:    0.0000      0.0000    
            lambdas:    1.0000      1.0000    
L=2  Nsemic=0  Cnfigmx=3
          i=1  nzeta=0  polorb=0  (3d)  (perturbative polarization orbital) (from 2p)
-------------------------------------------------------------------------------
L=0  Nkbl=1  erefs: 0.17977+309
L=1  Nkbl=1  erefs: 0.17977+309
L=2  Nkbl=1  erefs: 0.17977+309
L=3  Nkbl=1  erefs: 0.17977+309
===============================================================================
</basis_specs>

Using PAO.SplitTailNorm
atom: Called for N                     (Z =   7)
Maximum radius (at nrval) set to   50.00000 8518

read_vps: Pseudopotential generation method:
read_vps: ATM4.1.0  Troullier-Martins                       
Valence charge in pseudo generation:    5.00000

read_vps: Pseudopotential includes a core correction:
read_vps: Pseudo-core for xc-correction

xc_check: Exchange-correlation functional:
xc_check: VDW Klimes-Bowler-Michaelides
xc_check: WARNING: Pseudopotential generated with GGA PBE functional
V l=0 = -2*Zval/r beyond r=  1.3919
V l=1 = -2*Zval/r beyond r=  1.4145
V l=2 = -2*Zval/r beyond r=  1.7230
V l=3 = -2*Zval/r beyond r=  2.9342
All V_l potentials equal beyond r=  2.9166
This should be close to max(r_c) in ps generation
All pots = -2*Zval/r beyond r=  2.9342
Using small-core scheme (local charge) for Vlocal

VLOCAL_FROM_CHLOCAL: 99.0% of the norm of Vloc inside      5.103 Ry
VLOCAL_FROM_CHLOCAL: 99.9% of the norm of Vloc inside     11.630 Ry
atom: Maximum radius for chlocal:    3.45541
atom: Maximum radius for r*vlocal+2*Zval:    3.20822

KBgen: Kleinman-Bylander projectors: 
GHOST: No ghost state for L =  0
   l= 0   rc=  3.023842   el= -1.375728   Ekb= -2.823702   kbcos= -0.744201
GHOST: No ghost state for L =  1
   l= 1   rc=  2.987653   el= -0.533023   Ekb= -8.682923   kbcos= -0.586664
GHOST: No ghost state for L =  2
   l= 2   rc=  3.306234   el=  0.013276   Ekb= -1.644735   kbcos= -0.033118
GHOST: No ghost state for L =  3
   l= 3   rc=  3.448482   el=  0.019583   Ekb= -0.283699   kbcos= -0.015721

KBgen: Total number of Kleinman-Bylander projectors:  16
atom: -------------------------------------------------------------------------

atom: SANKEY-TYPE ORBITALS:
atom: Selected multiple-zeta basis: split     

SPLIT: Orbitals with angular momentum L= 0

SPLIT: Basis orbitals for state 2s

SPLIT: PAO cut-off radius determined from an
SPLIT: energy shift=  0.007350 Ry
Split based on tail norm

   izeta = 1
                 lambda =    1.000000
                     rc =    4.081165
                 energy =   -1.367466
                kinetic =    1.207915
    potential(screened) =   -2.575381
       potential(ionic) =   -8.096668

   izeta = 2
                 rmatch =    2.654003
              splitnorm =    0.150000
                 energy =   -1.049355
                kinetic =    2.089693
    potential(screened) =   -3.139048
       potential(ionic) =   -9.141946

SPLIT: Orbitals with angular momentum L= 1

SPLIT: Basis orbitals for state 2p

SPLIT: PAO cut-off radius determined from an
SPLIT: energy shift=  0.007350 Ry
Split based on tail norm

   izeta = 1
                 lambda =    1.000000
                     rc =    4.996964
                 energy =   -0.524823
                kinetic =    3.499383
    potential(screened) =   -4.024206
       potential(ionic) =   -9.360818

   izeta = 2
                 rmatch =    3.237319
              splitnorm =    0.150000
                 energy =   -0.376275
                kinetic =    4.926275
    potential(screened) =   -5.302550
       potential(ionic) =  -11.169650

POLgen: Perturbative polarization orbital with L=  2

POLgen: Polarization orbital for state 2p
Split based on tail norm

   izeta = 1
                     rc =    4.996964
                 energy =    1.593927
                kinetic =    3.073939
    potential(screened) =   -1.480013
       potential(ionic) =   -5.759099
atom: Total number of Sankey-type orbitals: 13

atm_pop: Valence configuration (for local Pseudopot. screening):
 2s( 2.00)                                                            
 2p( 3.00)                                                            
 3d( 0.00)                                                            
Vna: chval, zval:    5.00000   5.00000

Vna:  Cut-off radius for the neutral-atom potential:   4.996964
comcore: Pseudo-core radius Rcore=  1.539341

atom: _________________________________________________________________________

<basis_specs>
===============================================================================
O                    Z=   8    Mass=  15.999        Charge= 0.17977+309
Lmxo=2 Lmxkb= 3    BasisType=split      Semic=F
L=0  Nsemic=0  Cnfigmx=2
          i=1  nzeta=2  polorb=0  (2s)
            splnorm:   0.15000    
               vcte:    40.000    
               rinn:  -0.90000    
               qcoe:    0.0000    
               qyuk:    0.0000    
               qwid:   0.10000E-01
                rcs:    0.0000      0.0000    
            lambdas:    1.0000      1.0000    
L=1  Nsemic=0  Cnfigmx=2
          i=1  nzeta=2  polorb=1  (2p)  (to be polarized perturbatively)
            splnorm:   0.15000    
               vcte:    40.000    
               rinn:  -0.90000    
               qcoe:    0.0000    
               qyuk:    0.0000    
               qwid:   0.10000E-01
                rcs:    0.0000      0.0000    
            lambdas:    1.0000      1.0000    
L=2  Nsemic=0  Cnfigmx=3
          i=1  nzeta=0  polorb=0  (3d)  (perturbative polarization orbital) (from 2p)
-------------------------------------------------------------------------------
L=0  Nkbl=1  erefs: 0.17977+309
L=1  Nkbl=1  erefs: 0.17977+309
L=2  Nkbl=1  erefs: 0.17977+309
L=3  Nkbl=1  erefs: 0.17977+309
===============================================================================
</basis_specs>

Using PAO.SplitTailNorm
atom: Called for O                     (Z =   8)
Maximum radius (at nrval) set to   50.00000 8518

read_vps: Pseudopotential generation method:
read_vps: ATM4.1.0  Troullier-Martins                       
Valence charge in pseudo generation:    6.00000

read_vps: Pseudopotential includes a core correction:
read_vps: Pseudo-core for xc-correction

xc_check: Exchange-correlation functional:
xc_check: VDW Klimes-Bowler-Michaelides
xc_check: WARNING: Pseudopotential generated with GGA PBE functional
V l=0 = -2*Zval/r beyond r=  1.7247
V l=1 = -2*Zval/r beyond r=  1.7580
V l=2 = -2*Zval/r beyond r=  1.7247
V l=3 = -2*Zval/r beyond r=  1.7247
All V_l potentials equal beyond r=  1.7562
This should be close to max(r_c) in ps generation
All pots = -2*Zval/r beyond r=  1.7580
Using small-core scheme (local charge) for Vlocal

VLOCAL_FROM_CHLOCAL: 99.0% of the norm of Vloc inside     14.074 Ry
VLOCAL_FROM_CHLOCAL: 99.9% of the norm of Vloc inside     32.075 Ry
atom: Maximum radius for chlocal:    2.10664
atom: Maximum radius for r*vlocal+2*Zval:    1.94000

KBgen: Kleinman-Bylander projectors: 
GHOST: No ghost state for L =  0
   l= 0   rc=  1.914815   el= -1.777109   Ekb=-12.883099   kbcos= -0.199777
GHOST: No ghost state for L =  1
   l= 1   rc=  1.905215   el= -0.682147   Ekb= -6.438893   kbcos= -0.577559
GHOST: No ghost state for L =  2
   l= 2   rc=  2.093978   el=  0.013299   Ekb= -2.963186   kbcos= -0.008111
GHOST: No ghost state for L =  3
   l= 3   rc=  2.402901   el=  0.019585   Ekb= -0.577341   kbcos= -0.002012

KBgen: Total number of Kleinman-Bylander projectors:  16
atom: -------------------------------------------------------------------------

atom: SANKEY-TYPE ORBITALS:
atom: Selected multiple-zeta basis: split     

SPLIT: Orbitals with angular momentum L= 0

SPLIT: Basis orbitals for state 2s

SPLIT: PAO cut-off radius determined from an
SPLIT: energy shift=  0.007350 Ry
Split based on tail norm

   izeta = 1
                 lambda =    1.000000
                     rc =    3.655005
                 energy =   -1.768939
                kinetic =    1.719971
    potential(screened) =   -3.488910
       potential(ionic) =  -11.303034

   izeta = 2
                 rmatch =    2.326911
              splitnorm =    0.150000
                 energy =   -1.349000
                kinetic =    3.044643
    potential(screened) =   -4.393643
       potential(ionic) =  -12.875785

SPLIT: Orbitals with angular momentum L= 1

SPLIT: Basis orbitals for state 2p

SPLIT: PAO cut-off radius determined from an
SPLIT: energy shift=  0.007350 Ry
Split based on tail norm

   izeta = 1
                 lambda =    1.000000
                     rc =    4.475410
                 energy =   -0.673990
                kinetic =    4.284088
    potential(screened) =   -4.958077
       potential(ionic) =  -12.470506

   izeta = 2
                 rmatch =    2.832915
              splitnorm =    0.150000
                 energy =   -0.486678
                kinetic =    5.911252
    potential(screened) =   -6.397931
       potential(ionic) =  -14.613396

POLgen: Perturbative polarization orbital with L=  2

POLgen: Polarization orbital for state 2p
Split based on tail norm

   izeta = 1
                     rc =    4.475410
                 energy =    2.156729
                kinetic =    4.153113
    potential(screened) =   -1.996384
       potential(ionic) =   -8.041506
atom: Total number of Sankey-type orbitals: 13

atm_pop: Valence configuration (for local Pseudopot. screening):
 2s( 2.00)                                                            
 2p( 4.00)                                                            
 3d( 0.00)                                                            
Vna: chval, zval:    6.00000   6.00000

Vna:  Cut-off radius for the neutral-atom potential:   4.475410
comcore: Pseudo-core radius Rcore=  1.364142

atom: _________________________________________________________________________

prinput: Basis input 

PAO.BasisType split     

%block ChemicalSpeciesLabel
    1    6 C                       # Species index, atomic number, species label
    2    1 H                       # Species index, atomic number, species label
    3    7 N                       # Species index, atomic number, species label
    4    8 O                       # Species index, atomic number, species label
%endblock ChemicalSpeciesLabel

%block PAO.Basis                 # Define Basis set
# WARNING: This information might be incomplete!
C                     2                    # Species label, number of l-shells
 n=2   0   2                         # n, l, Nzeta 
   4.649      3.098   
   1.000      1.000   
 n=2   1   2 P   1                   # n, l, Nzeta, Polarization, NzetaPol
   5.669      3.774   
   1.000      1.000   
H                     1                    # Species label, number of l-shells
 n=1   0   2 P   1                   # n, l, Nzeta, Polarization, NzetaPol
   5.425      3.582   
   1.000      1.000   
N                     2                    # Species label, number of l-shells
 n=2   0   2                         # n, l, Nzeta 
   4.081      2.654   
   1.000      1.000   
 n=2   1   2 P   1                   # n, l, Nzeta, Polarization, NzetaPol
   4.997      3.237   
   1.000      1.000   
O                     2                    # Species label, number of l-shells
 n=2   0   2                         # n, l, Nzeta 
   3.655      2.327   
   1.000      1.000   
 n=2   1   2 P   1                   # n, l, Nzeta, Polarization, NzetaPol
   4.475      2.833   
   1.000      1.000   
%endblock PAO.Basis

prinput: ----------------------------------------------------------------------

Dumping basis to NetCDF file C.ion.nc
Dumping basis to NetCDF file H.ion.nc
Dumping basis to NetCDF file N.ion.nc
Dumping basis to NetCDF file O.ion.nc
coor:   Atomic-coordinates input format  =     Cartesian coordinates
coor:                                          (in Angstroms)

siesta: WARNING: XV file not found

siesta: Atomic coordinates (Bohr) and species
siesta:      1.16622  45.78560  18.89726  1        1
siesta:     31.48638  33.61352  18.89726  1        2
siesta:     29.10947  34.98097  18.89726  1        3
siesta:     29.15551  37.70579  18.89726  1        4
siesta:     31.48795  39.05242  18.89726  1        5
siesta:     31.48795  41.74569  18.89726  1        6
siesta:     29.15551  43.09233  18.89726  1        7
siesta:     33.82039  45.78560  18.89726  1        8
siesta:     36.15283  47.13223  18.89726  1        9
siesta:     36.15283   1.34664  18.89726  1       10
siesta:     33.82039   2.69327  18.89726  1       11
siesta:     33.82039   5.38654  18.89726  1       12
siesta:     36.15283   6.73318  18.89726  1       13
siesta:     36.15283   9.42645  18.89726  1       14
siesta:     33.82039  10.77308  18.89726  1       15
siesta:     33.82039  13.46635  18.89726  1       16
siesta:     36.15283  14.81299  18.89726  1       17
siesta:     36.15283  17.50626  18.89726  1       18
siesta:     33.81150  18.85445  18.89726  1       19
siesta:     33.83420  21.52507  18.89726  1       20
siesta:     36.09956  22.86526  18.89726  1       21
siesta:     36.09956  25.61361  18.89726  1       22
siesta:     33.83420  26.95380  18.89726  1       23
siesta:     33.81150  29.62442  18.89726  1       24
siesta:     31.51647  30.96915  18.89726  1       25
siesta:     36.15283  30.97261  18.89726  1       26
siesta:     31.51647  17.50972  18.89726  1       27
siesta:     29.10947  13.49790  18.89726  1       28
siesta:     24.49063  45.78560  18.89726  1       29
siesta:     26.82307  47.13223  18.89726  1       30
siesta:     26.82307   1.34664  18.89726  1       31
siesta:     24.49063   5.38654  18.89726  1       32
siesta:     26.82307   6.73318  18.89726  1       33
siesta:     26.82307   9.42645  18.89726  1       34
siesta:     24.49063  10.77308  18.89726  1       35
siesta:     24.49063  13.47948  18.89726  1       36
siesta:     26.80854  14.79359  18.89726  1       37
siesta:     26.80854  33.68528  18.89726  1       38
siesta:     24.49063  34.99938  18.89726  1       39
siesta:     24.49063  37.70579  18.89726  1       40
siesta:     26.82307  39.05242  18.89726  1       41
siesta:     26.82307  41.74569  18.89726  1       42
siesta:     24.49063  43.09233  18.89726  1       43
siesta:     29.15551  45.78560  18.89726  1       44
siesta:     31.48795  47.13223  18.89726  1       45
siesta:     31.48795   1.34664  18.89726  1       46
siesta:     29.15551   2.69327  18.89726  1       47
siesta:     29.15551   5.38654  18.89726  1       48
siesta:     31.48795   6.73318  18.89726  1       49
siesta:     31.48795   9.42645  18.89726  1       50
siesta:     29.15551  10.77308  18.89726  1       51
siesta:     31.48638  14.86535  18.89726  1       52
siesta:     36.15283  33.66588  18.89726  1       53
siesta:     33.82039  35.01252  18.89726  1       54
siesta:     33.82039  37.70579  18.89726  1       55
siesta:     45.48259  47.13223  18.89726  1       56
siesta:     45.48259   1.34664  18.89726  1       57
siesta:     43.15015   2.69327  18.89726  1       58
siesta:     43.15015   5.38654  18.89726  1       59
siesta:     45.48259   6.73318  18.89726  1       60
siesta:     45.48259   9.42645  18.89726  1       61
siesta:     43.15015  10.77308  18.89726  1       62
siesta:     43.15015  13.46635  18.89726  1       63
siesta:     45.48259  14.81299  18.89726  1       64
siesta:     45.48259  17.50626  18.89726  1       65
siesta:     43.15015  18.85289  18.89726  1       66
siesta:     43.15015  21.54616  18.89726  1       67
siesta:     45.48259  22.89280  18.89726  1       68
siesta:     45.48259  25.58607  18.89726  1       69
siesta:     43.15015  26.93270  18.89726  1       70
siesta:     43.15015  29.62597  18.89726  1       71
siesta:     45.48259  30.97261  18.89726  1       72
siesta:     45.48259  33.66588  18.89726  1       73
siesta:     43.15015  35.01252  18.89726  1       74
siesta:     43.15015  37.70579  18.89726  1       75
siesta:     45.48259  39.05242  18.89726  1       76
siesta:     45.48259  41.74569  18.89726  1       77
siesta:     43.15015  43.09233  18.89726  1       78
siesta:     43.15015  45.78560  18.89726  1       79
siesta:     38.48527  43.09233  18.89726  1       80
siesta:     40.81771  41.74569  18.89726  1       81
siesta:     40.81771  39.05242  18.89726  1       82
siesta:     36.15283  39.05242  18.89726  1       83
siesta:     36.15283  41.74569  18.89726  1       84
siesta:     33.82039  43.09233  18.89726  1       85
siesta:     38.48527  45.78560  18.89726  1       86
siesta:     40.81771  47.13223  18.89726  1       87
siesta:     40.81771   1.34664  18.89726  1       88
siesta:     38.48527   2.69327  18.89726  1       89
siesta:     38.48527   5.38654  18.89726  1       90
siesta:     40.81771   6.73318  18.89726  1       91
siesta:     40.81771   9.42645  18.89726  1       92
siesta:     38.48527  10.77308  18.89726  1       93
siesta:     19.82574  43.09233  18.89726  1       94
siesta:     38.48527  13.46635  18.89726  1       95
siesta:     40.81771  17.50626  18.89726  1       96
siesta:     38.48527  18.85289  18.89726  1       97
siesta:     38.48527  21.54616  18.89726  1       98
siesta:     40.81771  22.89280  18.89726  1       99
siesta:     40.81771  25.58607  18.89726  1      100
siesta:     38.48527  26.93270  18.89726  1      101
siesta:     38.48527  29.62597  18.89726  1      102
siesta:     40.81771  30.97261  18.89726  1      103
siesta:     40.81771  33.66588  18.89726  1      104
siesta:     38.48527  35.01252  18.89726  1      105
siesta:     38.48527  37.70579  18.89726  1      106
siesta:     40.81771  14.81299  18.89726  1      107
siesta:     22.15819  41.74569  18.89726  1      108
siesta:     24.49063   2.69327  18.89726  1      109
siesta:     19.82574  37.70579  18.89726  1      110
siesta:      8.16354   6.73318  18.89726  1      111
siesta:      8.16354   9.42645  18.89726  1      112
siesta:      5.83110  10.77308  18.89726  1      113
siesta:      5.83110  13.46635  18.89726  1      114
siesta:      8.16354  14.81299  18.89726  1      115
siesta:      8.16354  17.50626  18.89726  1      116
siesta:      5.83110  18.85289  18.89726  1      117
siesta:      5.83110  21.54616  18.89726  1      118
siesta:      8.16354  22.89280  18.89726  1      119
siesta:      8.16354  25.58607  18.89726  1      120
siesta:      5.83110  26.93270  18.89726  1      121
siesta:      5.83110  29.62597  18.89726  1      122
siesta:      8.16354  30.97261  18.89726  1      123
siesta:      8.16354  33.66588  18.89726  1      124
siesta:      5.83110  35.01252  18.89726  1      125
siesta:      5.83110  37.70579  18.89726  1      126
siesta:      8.16354  39.05242  18.89726  1      127
siesta:      8.16354  41.74569  18.89726  1      128
siesta:      5.83110  43.09233  18.89726  1      129
siesta:     22.15819  39.05242  18.89726  1      130
siesta:     12.82842  47.13223  18.89726  1      131
siesta:     12.82842   1.34664  18.89726  1      132
siesta:     10.49598   2.69327  18.89726  1      133
siesta:      5.83110   5.38654  18.89726  1      134
siesta:      5.83110   2.69327  18.89726  1      135
siesta:      8.16354   1.34664  18.89726  1      136
siesta:      8.16354  47.13223  18.89726  1      137
siesta:      3.49866  47.13223  18.89726  1      138
siesta:      3.49866   1.34664  18.89726  1      139
siesta:      1.16622   2.69327  18.89726  1      140
siesta:      1.16622   5.38654  18.89726  1      141
siesta:      3.49866   6.73318  18.89726  1      142
siesta:      3.49866   9.42645  18.89726  1      143
siesta:      1.16622  10.77308  18.89726  1      144
siesta:      1.16622  13.46635  18.89726  1      145
siesta:      3.49866  14.81299  18.89726  1      146
siesta:      3.49866  17.50626  18.89726  1      147
siesta:      1.16622  18.85289  18.89726  1      148
siesta:     10.49598   5.38654  18.89726  1      149
siesta:      1.16622  21.54616  18.89726  1      150
siesta:      3.49866  25.58607  18.89726  1      151
siesta:      1.16622  26.93270  18.89726  1      152
siesta:      1.16622  29.62597  18.89726  1      153
siesta:      3.49866  30.97261  18.89726  1      154
siesta:      3.49866  33.66588  18.89726  1      155
siesta:      1.16622  35.01252  18.89726  1      156
siesta:      1.16622  37.70579  18.89726  1      157
siesta:      3.49866  39.05242  18.89726  1      158
siesta:      3.49866  41.74569  18.89726  1      159
siesta:      1.16622  43.09233  18.89726  1      160
siesta:      5.83110  45.78560  18.89726  1      161
siesta:      3.49866  22.89280  18.89726  1      162
siesta:     12.82842   6.73318  18.89726  1      163
siesta:     10.49598  45.78560  18.89726  1      164
siesta:     10.49598  10.77308  18.89726  1      165
siesta:     15.16975  18.85445  18.89726  1      166
siesta:     15.14705  21.52507  18.89726  1      167
siesta:     15.14705  26.95380  18.89726  1      168
siesta:     12.82842   9.42645  18.89726  1      169
siesta:     17.46478  30.96915  18.89726  1      170
siesta:     17.49487  33.61352  18.89726  1      171
siesta:     15.16086  35.01252  18.89726  1      172
siesta:     15.16086  37.70579  18.89726  1      173
siesta:     17.49330  39.05242  18.89726  1      174
siesta:     17.49330  41.74569  18.89726  1      175
siesta:     15.16086  43.09233  18.89726  1      176
siesta:     19.82574  45.78560  18.89726  1      177
siesta:     22.15819  47.13223  18.89726  1      178
siesta:     22.15819   1.34664  18.89726  1      179
siesta:     19.82574   2.69327  18.89726  1      180
siesta:     19.82574   5.38654  18.89726  1      181
siesta:     22.15819   6.73318  18.89726  1      182
siesta:     22.15819   9.42645  18.89726  1      183
siesta:     19.82574  10.77308  18.89726  1      184
siesta:     19.87178  13.49790  18.89726  1      185
siesta:     22.17271  14.79359  18.89726  1      186
siesta:     22.17271  33.68528  18.89726  1      187
siesta:     19.87178  34.98097  18.89726  1      188
siesta:     17.46478  17.50972  18.89726  1      189
siesta:     17.49487  14.86535  18.89726  1      190
siesta:     15.16975  29.62442  18.89726  1      191
siesta:     15.16086  10.77308  18.89726  1      192
siesta:     10.49598  13.46635  18.89726  1      193
siesta:     12.82842  14.81299  18.89726  1      194
siesta:     12.82842  17.50626  18.89726  1      195
siesta:     10.49598  18.85289  18.89726  1      196
siesta:     10.49598  21.54616  18.89726  1      197
siesta:     15.16086  13.46635  18.89726  1      198
siesta:     12.88169  25.61361  18.89726  1      199
siesta:     10.49598  26.93270  18.89726  1      200
siesta:     10.49598  29.62597  18.89726  1      201
siesta:     12.82842  30.97261  18.89726  1      202
siesta:     12.82842  33.66588  18.89726  1      203
siesta:     12.88169  22.86526  18.89726  1      204
siesta:     10.49598  37.70579  18.89726  1      205
siesta:     10.49598  35.01252  18.89726  1      206
siesta:     17.49330   6.73318  18.89726  1      207
siesta:     15.16086   5.38654  18.89726  1      208
siesta:     15.16086   2.69327  18.89726  1      209
siesta:     17.49330   1.34664  18.89726  1      210
siesta:     17.49330   9.42645  18.89726  1      211
siesta:     15.16086  45.78560  18.89726  1      212
siesta:     10.49598  43.09233  18.89726  1      213
siesta:     12.82842  41.74569  18.89726  1      214
siesta:     12.82842  39.05242  18.89726  1      215
siesta:     17.49330  47.13223  18.89726  1      216
siesta:     29.75292  29.85660  18.89726  2      217
siesta:     29.75292  18.62227  18.89726  2      218
siesta:     26.72687  31.60156  18.89726  2      219
siesta:     26.72687  16.87730  18.89726  2      220
siesta:     22.25438  31.60156  18.89726  2      221
siesta:     19.22833  29.85660  18.89726  2      222
siesta:     16.99363  25.98467  18.89726  2      223
siesta:     16.99363  22.49420  18.89726  2      224
siesta:     19.22833  18.62227  18.89726  2      225
siesta:     31.98762  22.49420  18.89726  2      226
siesta:     22.25438  16.87730  18.89726  2      227
siesta:     31.98762  25.98467  18.89726  2      228
siesta:     23.16101  24.94706  26.96811  1      229
siesta:     25.78666  24.23333  28.07956  1      230
siesta:     21.41967  25.82189  29.12100  1      231
siesta:     25.02755  21.17817  26.50735  2      232
siesta:     23.49629  26.54484  25.63183  2      233
siesta:     19.61047  26.59935  28.37418  2      234
siesta:     20.98603  24.20942  30.41110  2      235
siesta:     22.40823  27.30070  30.24198  2      236
siesta:     20.36270  22.12924  26.25526  2      237
siesta:     21.82570  23.10618  23.62158  2      238
siesta:     22.12898  22.65866  25.52627  3      239
siesta:     26.50249  21.83497  27.53374  4      240
siesta:     27.03835  25.71573  29.33630  4      241

siesta: System type = slab      

initatomlists: Number of atoms, orbitals, and projectors:    241  2981  3723

siesta: ******************** Simulation parameters ****************************
siesta:
siesta: The following are some of the parameters of the simulation.
siesta: A complete list of the parameters used, including default values,
siesta: can be found in file out.fdf
siesta:
redata: Spin configuration                          = none
redata: Number of spin components                   = 1
redata: Time-Reversal Symmetry                      = T
redata: Spin spiral                                 = F
redata: Long output                                 =   F
redata: Number of Atomic Species                    =        4
redata: Charge density info will appear in .RHO file
redata: Write Mulliken charges (when)               = none
redata: Write Mulliken Pop.                         = NO
redata: Write Hirshfeld charges (when)              = none
redata: Write Voronoi charges (when)                = none
redata: Write spin charge (when)                    = none
redata: Matel table size (NRTAB)                    =     1024
redata: Mesh Cutoff                                 =   250.0000 Ry
redata: Net charge of the system                    =     0.0000 |e|
redata: Min. number of SCF Iter                     =        0
redata: Max. number of SCF Iter                     =     2000
redata: SCF convergence failure will abort job
redata: SCF mix quantity                            = Hamiltonian
redata: Mix DM or H after convergence               =   F
redata: Recompute H after scf cycle                 =   F
redata: Mix DM in first SCF step                    =   T
redata: Write Pulay info on disk                    =   F
redata: New DM Occupancy tolerance                  = 0.000000000001
redata: No kicks to SCF
redata: DM Mixing Weight for Kicks                  =     0.5000
redata: Require Harris convergence for SCF          =   F
redata: Harris energy tolerance for SCF             =     0.000100 eV
redata: Require DM convergence for SCF              =   T
redata: DM tolerance for SCF                        =     0.000010
redata: Require EDM convergence for SCF             =   F
redata: EDM tolerance for SCF                       =     0.001000 eV
redata: Require H convergence for SCF               =   T
redata: Hamiltonian tolerance for SCF               =     0.001000 eV
redata: Require (free) Energy convergence for SCF   =   F
redata: (free) Energy tolerance for SCF             =     0.000100 eV
redata: Using DFT-D3 dispersion                     =   F
redata: Using Saved Data (generic)                  =   F
redata: Use continuation files for DM               =   T
redata: Neglect nonoverlap interactions             =   F
redata: Method of Calculation                       = Diagonalization
redata: Electronic Temperature                      =   300.0000 K
redata: Fix the spin of the system                  =   F
redata: Max. number of TDED Iter                    =        1
redata: Number of TDED substeps                     =        3
redata: Dynamics option                             = Single-point calculation
mix.SCF: Pulay mixing                            = Pulay
mix.SCF:    Variant                              = stable
mix.SCF:    History steps                        = 20
mix.SCF:    Linear mixing weight                 =     0.010000
mix.SCF:    Mixing weight                        =     0.010000
mix.SCF:    SVD condition                        = 0.1000E-07
redata: Save all siesta data in one NC              =   F
redata: ***********************************************************************

%block SCF.Mixers
  Pulay
%endblock SCF.Mixers

%block SCF.Mixer.Pulay
  # Mixing method
  method pulay
  variant stable

  # Mixing options
  weight 0.0100
  weight.linear 0.0100
  history 20
%endblock SCF.Mixer.Pulay

DM_history_depth set to one: no extrapolation allowed by default for geometry relaxation
Size of DM history Fstack: 1
Total number of electrons:   912.000000
Total ionic charge:   912.000000

* ProcessorY, Blocksize:    8  46


* Orbital distribution balance (max,min):    83    46

 Kpoints in:            1 . Kpoints trimmed:            1

siesta: k-grid: Number of k-points = 1
siesta: k-points from Monkhorst-Pack grid
siesta: k-cutoff (effective) =    10.000 Ang
siesta: k-point supercell and displacements
siesta: k-grid:     1     0     0      0.000
siesta: k-grid:     0     1     0      0.000
siesta: k-grid:     0     0     1      0.000

diag: Algorithm                                     = D&C
diag: Parallel over k                               =   F
diag: Use parallel 2D distribution                  =   T
diag: Parallel block-size                           = 46
diag: Parallel distribution                         =     8 x     8
diag: Used triangular part                          = Lower
diag: Absolute tolerance                            =  0.100E-15
diag: Orthogonalization factor                      =  0.100E-05
diag: Memory factor                                 =  1.0000


ts: **************************************************************
ts: Save H and S matrices                           =    F
ts: Save DM and EDM matrices                        =    F
ts: Only save the overlap matrix S                  =    F
ts: **************************************************************

************************ Begin: TS CHECKS AND WARNINGS ************************
************************ End: TS CHECKS AND WARNINGS **************************


                     ====================================
                        Single-point calculation
                     ====================================

outcell: Unit cell vectors (Ang):
       24.685488    0.000000    0.000000
        0.000000   25.653912    0.000000
        0.000000    0.000000   20.000000

outcell: Cell vector modules (Ang)   :   24.685488   25.653912   20.000000
outcell: Cell angles (23,13,12) (deg):     90.0000     90.0000     90.0000
outcell: Cell volume (Ang**3)        :  12665.5865
<dSpData1D:S at geom step 0
  <sparsity:sparsity for geom step 0
    nrows_g=2981 nrows=83 sparsity=.0038 nnzs=33596, refcount: 7>
  <dData1D:(new from dSpData1D) n=33596, refcount: 1>
refcount: 1>
new_DM -- step:     1
Initializing Density Matrix...

Attempting to read DM from file... Failed...
DM filled with atomic data:
<dSpData2D:DM initialized from atoms
  <sparsity:sparsity for geom step 0
    nrows_g=2981 nrows=83 sparsity=.0038 nnzs=33596, refcount: 8>
  <dData2D:DM n=33596 m=1, refcount: 1>
refcount: 1>
No. of atoms with KB's overlaping orbs in proc 0. Max # of overlaps:      60     221

InitMesh: MESH = 240 x 250 x 192 = 11520000
InitMesh: Mesh cutoff (required, used) =   250.000   254.709 Ry
New grid distribution [1]: sub = 2
New grid distribution [2]: sub = 2
New grid distribution [3]: sub = 2
Setting up quadratic distribution...

stepf: Fermi-Dirac step function

siesta: Program's energy decomposition (eV):
siesta: Ebs     =    -11074.317449
siesta: Eions   =     55608.971781
siesta: Ena     =     10755.827213
siesta: Ekin    =     26343.915800
siesta: Enl     =     -4486.599337
siesta: Eso     =         0.000000
siesta: Edftu   =         0.000000
siesta: DEna    =     -1334.145293
siesta: DUscf   =       128.923026
siesta: DUext   =         0.000000
siesta: Ex      =    -10214.735704
siesta: Ec      =     -1237.337400
siesta: Exc     =    -11452.073104
siesta: EbV     =         0.000000
siesta: eta*DQ  =         0.000000
siesta: Emadel  =         0.000000
siesta: Emeta   =         0.000000
siesta: Emolmec =         0.000000
siesta: Ekinion =         0.000000
siesta: Eharris =    -35487.610232
siesta: Etot    =    -35653.123476
siesta: FreeEng =    -35653.123623

        iscf     Eharris(eV)        E_KS(eV)     FreeEng(eV)     dDmax    Ef(eV) dHmax(eV)
   scf:    1   -35487.610232   -35653.123476   -35653.123623  1.941160 -6.126718  8.767537
timer: Routine,Calls,Time,% = IterSCF        1       4.972  16.19
   scf:    2   -35654.722449   -35653.924948   -35653.925094  0.003605 -6.097283  8.530389
   scf:    3   -35677.304803   -35673.088847   -35673.089019  0.187036 -4.397991  6.886542
   scf:    4   -35676.212046   -35674.816283   -35674.816432  0.036233 -4.509866  4.264556
   scf:    5   -35677.468444   -35676.448016   -35676.448159  0.048936 -4.243699  2.139127
   scf:    6   -35677.397083   -35677.023329   -35677.023474  0.024220 -4.281943  0.620627
   scf:    7   -35677.129438   -35677.078964   -35677.079109  0.002551 -4.265180  0.517151
   scf:    8   -35677.199816   -35677.164960   -35677.165100  0.012715 -4.288228  0.235577
   scf:    9   -35677.190274   -35677.181169   -35677.181310  0.005121 -4.246812  0.140326
   scf:   10   -35677.178882   -35677.182586   -35677.182726  0.006245 -4.283949  0.164340
   scf:   11   -35677.188333   -35677.188577   -35677.188718  0.005109 -4.232352  0.116106
   scf:   12   -35677.194281   -35677.192419   -35677.192559  0.002891 -4.270735  0.072506
   scf:   13   -35677.186906   -35677.190271   -35677.190411  0.002158 -4.248701  0.071935
   scf:   14   -35677.194637   -35677.192758   -35677.192898  0.001203 -4.268929  0.034113
   scf:   15   -35677.193026   -35677.192920   -35677.193061  0.000693 -4.275936  0.022500
   scf:   16   -35677.192912   -35677.192916   -35677.193056  0.000025 -4.276005  0.023198
mix: Pulay -- inversion failed, > SVD [rank/size] 9 / 15
   scf:   17   -35677.192991   -35677.192995   -35677.193135  0.000564 -4.281514  0.008430
mix: Pulay -- inversion failed, > SVD [rank/size] 9 / 16
   scf:   18   -35677.193001   -35677.192998   -35677.193138  0.000012 -4.281447  0.008085
mix: Pulay -- inversion failed, > SVD [rank/size] 9 / 17
   scf:   19   -35677.193001   -35677.192999   -35677.193139  0.000006 -4.281461  0.007754
mix: Pulay -- inversion failed, > SVD [rank/size] 9 / 18
   scf:   20   -35677.193002   -35677.193001   -35677.193141  0.000005 -4.281475  0.007436
mix: Pulay -- inversion failed, > SVD [rank/size] 9 / 19
   scf:   21   -35677.193003   -35677.193002   -35677.193142  0.000005 -4.281488  0.007131
mix: Pulay -- inversion failed, > SVD [rank/size] 9 / 19
   scf:   22   -35677.193004   -35677.193003   -35677.193143  0.000005 -4.281502  0.006833
mix: Pulay -- inversion failed, > SVD [rank/size] 10 / 19
   scf:   23   -35677.193015   -35677.193009   -35677.193149  0.000023 -4.281175  0.005524
mix: Pulay -- inversion failed, > SVD [rank/size] 9 / 19
   scf:   24   -35677.193004   -35677.193007   -35677.193147  0.000037 -4.281499  0.007651
mix: Pulay -- inversion failed, > SVD [rank/size] 10 / 19
   scf:   25   -35677.193044   -35677.193028   -35677.193169  0.000171 -4.282074  0.003621
mix: Pulay -- inversion failed, > SVD [rank/size] 9 / 19
   scf:   26   -35677.193029   -35677.193028   -35677.193169  0.000026 -4.282032  0.001768
mix: Pulay -- inversion failed, > SVD [rank/size] 9 / 19
   scf:   27   -35677.193029   -35677.193029   -35677.193169  0.000001 -4.282039  0.001706
mix: Pulay -- inversion failed, > SVD [rank/size] 10 / 19
   scf:   28   -35677.193033   -35677.193031   -35677.193171  0.000039 -4.282228  0.000798
mix: Pulay -- inversion failed, > SVD [rank/size] 10 / 19
   scf:   29   -35677.193031   -35677.193031   -35677.193171  0.000001 -4.282231  0.000810

SCF Convergence by DM+H criterion
max |DM_out - DM_in|         :     0.0000011845
max |H_out - H_in|      (eV) :     0.0008099431
SCF cycle converged after 29 iterations

Using DM_out to compute the final energy and forces
No. of atoms with KB's overlaping orbs in proc 0. Max # of overlaps:      60     221

siesta: E_KS(eV) =           -35677.1930

siesta: E_KS - E_eggbox =    -35677.1930

siesta: Atomic forces (eV/Ang):
----------------------------------------
   Tot   -0.006074    0.002324   -0.003040
----------------------------------------
   Max    0.443400
   Res    0.092145    sqrt( Sum f_i^2 / 3N )
----------------------------------------
   Max    0.443400    constrained

Stress tensor Voigt[x,y,z,yz,xz,xy] (kbar):      -17.67      -19.65        0.07        0.01        0.02        0.00
(Free)E + p*V (eV/cell)   -35579.0273
Target enthalpy (eV/cell)   -35677.1932

siesta: Program's energy decomposition (eV):
siesta: Ebs     =    -12161.770063
siesta: Eions   =     55608.971781
siesta: Ena     =     10755.827213
siesta: Ekin    =     25544.532682
siesta: Enl     =     -4239.189231
siesta: Eso     =         0.000000
siesta: Edftu   =         0.000000
siesta: DEna    =      -902.298591
siesta: DUscf   =        76.352820
siesta: DUext   =         0.000000
siesta: Ex      =    -10069.292660
siesta: Ec      =     -1234.153482
siesta: Exc     =    -11303.446142
siesta: EbV     =         0.000000
siesta: eta*DQ  =         0.000000
siesta: Emadel  =         0.000000
siesta: Emeta   =         0.000000
siesta: Emolmec =         0.000000
siesta: Ekinion =         0.000000
siesta: Eharris =    -35677.193031
siesta: Etot    =    -35677.193031
siesta: FreeEng =    -35677.193171

siesta: Final energy (eV):
siesta:  Band Struct. =  -12161.770063
siesta:       Kinetic =   25544.532682
siesta:       Hartree =  164328.119162
siesta:         Edftu =       0.000000
siesta:       Eso     =       0.000000
siesta:    Ext. field =       0.000000
siesta:         Exch. =  -10069.292660
siesta:         Corr. =   -1234.153482
siesta:     Bulk bias =       0.000000
siesta:   Exch.-corr. =  -11303.446142
siesta:  Ion-electron = -352011.339981
siesta:       Ion-ion =  137764.941247
siesta:       Ekinion =       0.000000
siesta: D3 dispersion =       0.000000
siesta:         Total =  -35677.193031
siesta:         Fermi =      -4.282231

siesta: Atomic forces (eV/Ang):
siesta:      1    0.000199    0.118161    0.000000
siesta:      2    0.007322    0.003016    0.000028
siesta:      3    0.002788   -0.007138    0.000644
siesta:      4   -0.202804   -0.244802   -0.000101
siesta:      5   -0.142197   -0.104987    0.000001
siesta:      6    0.025738    0.010077   -0.000008
siesta:      7   -0.099276   -0.093146    0.000015
siesta:      8    0.011971    0.118004    0.000001
siesta:      9   -0.035794   -0.075087    0.000001
siesta:     10   -0.035801    0.075006    0.000001
siesta:     11    0.011992   -0.117968    0.000001
siesta:     12    0.018175    0.117058    0.000009
siesta:     13   -0.020903   -0.108366   -0.000001
siesta:     14   -0.163081    0.125470   -0.000004
siesta:     15    0.112330   -0.034371    0.000010
siesta:     16   -0.133582    0.443379    0.000259
siesta:     17   -0.197417    0.041702    0.000129
siesta:     18    0.229186   -0.132058    0.000406
siesta:     19    0.003741   -0.002293    0.000994
siesta:     20   -0.005650   -0.002686   -0.003089
siesta:     21   -0.004072   -0.004061   -0.000094
siesta:     22   -0.004034    0.003430    0.000011
siesta:     23   -0.005112    0.003249   -0.002819
siesta:     24    0.003443    0.001726    0.000761
siesta:     25    0.003897    0.002032   -0.001535
siesta:     26    0.229401    0.132331    0.000327
siesta:     27    0.002188   -0.001366   -0.001897
siesta:     28    0.002188    0.006940    0.000683
siesta:     29    0.000233    0.112578   -0.000010
siesta:     30    0.002935   -0.104346    0.000003
siesta:     31    0.002956    0.104300    0.000003
siesta:     32    0.000688    0.117746    0.000004
siesta:     33    0.029539   -0.234007    0.000021
siesta:     34    0.014113    0.238023    0.000077
siesta:     35   -0.002026   -0.281895   -0.000281
siesta:     36    0.007044    0.008292    0.000997
siesta:     37    0.002670   -0.005180    0.001193
siesta:     38    0.002595    0.007398    0.001280
siesta:     39    0.006448   -0.008223    0.000568
siesta:     40   -0.001528    0.282096   -0.000348
siesta:     41    0.013985   -0.238279    0.000058
siesta:     42    0.029576    0.234069    0.000031
siesta:     43    0.000706   -0.117814    0.000001
siesta:     44   -0.014244    0.096431   -0.000001
siesta:     45    0.004571   -0.085413   -0.000000
siesta:     46    0.004483    0.085358    0.000000
siesta:     47   -0.014214   -0.096499    0.000004
siesta:     48   -0.099254    0.093001    0.000015
siesta:     49    0.025817   -0.010108   -0.000014
siesta:     50   -0.142476    0.104699    0.000018
siesta:     51   -0.202727    0.244797    0.000002
siesta:     52    0.008085   -0.002199    0.000008
siesta:     53   -0.197559   -0.041784    0.000113
siesta:     54   -0.133552   -0.443400    0.000157
siesta:     55    0.112073    0.034713   -0.000002
siesta:     56    0.022180   -0.077374    0.000000
siesta:     57    0.022143    0.077350    0.000000
siesta:     58   -0.021761   -0.076129   -0.000000
siesta:     59   -0.065334    0.074727   -0.000000
siesta:     60    0.041242   -0.041507    0.000002
siesta:     61    0.052809    0.040823   -0.000004
siesta:     62   -0.054742   -0.044507    0.000005
siesta:     63   -0.014255    0.038717   -0.000003
siesta:     64    0.032072   -0.065407    0.000003
siesta:     65    0.117307    0.060044    0.000006
siesta:     66   -0.172514   -0.165870    0.000027
siesta:     67   -0.195286    0.145867   -0.000032
siesta:     68    0.114515   -0.053532    0.000005
siesta:     69    0.114481    0.053499    0.000008
siesta:     70   -0.195403   -0.145940   -0.000028
siesta:     71   -0.172466    0.165922    0.000023
siesta:     72    0.117522   -0.060138    0.000005
siesta:     73    0.031894    0.065509    0.000005
siesta:     74   -0.014169   -0.038851   -0.000004
siesta:     75   -0.054816    0.044491    0.000005
siesta:     76    0.052990   -0.040918   -0.000002
siesta:     77    0.041167    0.041612    0.000001
siesta:     78   -0.065309   -0.074864   -0.000001
siesta:     79   -0.021767    0.076095    0.000000
siesta:     80   -0.007237   -0.071060   -0.000000
siesta:     81    0.037240    0.124322    0.000002
siesta:     82    0.018506   -0.120774   -0.000002
siesta:     83   -0.163110   -0.125672   -0.000003
siesta:     84   -0.020962    0.108346   -0.000001
siesta:     85    0.018184   -0.117175    0.000008
siesta:     86    0.026015    0.069480    0.000000
siesta:     87    0.000713   -0.114163    0.000000
siesta:     88    0.000734    0.114146    0.000000
siesta:     89    0.026079   -0.069472    0.000000
siesta:     90   -0.007374    0.070955   -0.000000
siesta:     91    0.037290   -0.124166    0.000002
siesta:     92    0.018559    0.120692    0.000000
siesta:     93    0.078119    0.046669    0.000012
siesta:     94    0.099664   -0.093400   -0.000007
siesta:     95    0.200999   -0.056427   -0.000042
siesta:     96    0.224566    0.105730   -0.000065
siesta:     97   -0.118020    0.071024    0.000130
siesta:     98   -0.241888    0.004636    0.000342
siesta:     99   -0.089165   -0.430308    0.000009
siesta:    100   -0.089163    0.430354    0.000005
siesta:    101   -0.241890   -0.004641    0.000272
siesta:    102   -0.118215   -0.071099    0.000118
siesta:    103    0.224594   -0.105611   -0.000056
siesta:    104   -0.046515    0.144078    0.000028
siesta:    105    0.201259    0.056393   -0.000027
siesta:    106    0.077971   -0.046572    0.000010
siesta:    107   -0.046337   -0.143926    0.000030
siesta:    108   -0.030410    0.235332    0.000108
siesta:    109    0.000257   -0.112599   -0.000010
siesta:    110    0.198736   -0.243157   -0.000236
siesta:    111   -0.036125   -0.125845   -0.000009
siesta:    112   -0.018273    0.120281   -0.000019
siesta:    113    0.055313   -0.045313    0.000008
siesta:    114    0.011070    0.039694   -0.000081
siesta:    115    0.050265   -0.143789   -0.000066
siesta:    116   -0.226152    0.101708    0.000565
siesta:    117    0.171748   -0.166447   -0.000027
siesta:    118    0.193945    0.148703    0.000062
siesta:    119    0.090359   -0.426279   -0.000227
siesta:    120    0.090288    0.427950   -0.000084
siesta:    121    0.194015   -0.148917    0.000065
siesta:    122    0.171591    0.166847   -0.000015
siesta:    123   -0.226219   -0.102421    0.000287
siesta:    124    0.049909    0.144269   -0.000020
siesta:    125    0.011433   -0.039938   -0.000024
siesta:    126    0.055175    0.045489    0.000004
siesta:    127   -0.018399   -0.120439    0.000000
siesta:    128   -0.036234    0.125773   -0.000002
siesta:    129    0.064535   -0.076108    0.000001
siesta:    130   -0.011612   -0.238612    0.000044
siesta:    131    0.035153   -0.076507    0.000001
siesta:    132    0.035175    0.076491    0.000001
siesta:    133   -0.026006   -0.069958    0.000001
siesta:    134    0.064530    0.076081   -0.000000
siesta:    135    0.021200   -0.076956    0.000003
siesta:    136   -0.000279    0.114703   -0.000002
siesta:    137   -0.000285   -0.114732   -0.000002
siesta:    138   -0.022704   -0.077186   -0.000001
siesta:    139   -0.022727    0.077147    0.000000
siesta:    140    0.000200   -0.118143   -0.000000
siesta:    141    0.000346    0.114087   -0.000001
siesta:    142   -0.040965   -0.041655   -0.000001
siesta:    143   -0.055232    0.040233    0.000013
siesta:    144    0.001226   -0.131487   -0.000002
siesta:    145   -0.000368    0.122039    0.000016
siesta:    146   -0.030543   -0.064656    0.000010
siesta:    147   -0.120833    0.058539   -0.000045
siesta:    148    0.000633   -0.272217   -0.000004
siesta:    149    0.006084    0.072062    0.000015
siesta:    150    0.000946    0.267707    0.000022
siesta:    151   -0.116351    0.052378    0.000012
siesta:    152    0.000861   -0.267642    0.000014
siesta:    153    0.000578    0.272693   -0.000000
siesta:    154   -0.120768   -0.058816   -0.000020
siesta:    155   -0.030630    0.064720    0.000004
siesta:    156   -0.000369   -0.122214    0.000005
siesta:    157    0.001056    0.131691    0.000001
siesta:    158   -0.055064   -0.040371    0.000003
siesta:    159   -0.040982    0.041623    0.000000
siesta:    160    0.000262   -0.114171   -0.000001
siesta:    161    0.021189    0.076956    0.000001
siesta:    162   -0.116636   -0.052234    0.000045
siesta:    163    0.019740   -0.110593    0.000034
siesta:    164   -0.026003    0.069937    0.000001
siesta:    165   -0.076851    0.045323    0.000004
siesta:    166    0.020778    0.000195    0.002839
siesta:    167   -0.016126   -0.019911    0.018232
siesta:    168   -0.011881    0.014136    0.011226
siesta:    169    0.162505    0.128110    0.000003
siesta:    170   -0.013885    0.003212    0.007815
siesta:    171    0.001634    0.008255    0.001529
siesta:    172    0.134250   -0.442165   -0.000372
siesta:    173   -0.109576    0.039416   -0.000032
siesta:    174    0.143227   -0.106194   -0.000025
siesta:    175   -0.025252    0.010511    0.000032
siesta:    176   -0.017528   -0.118096   -0.000000
siesta:    177    0.013457    0.096992   -0.000006
siesta:    178   -0.002624   -0.104952    0.000005
siesta:    179   -0.002628    0.104866    0.000004
siesta:    180    0.013392   -0.097004   -0.000004
siesta:    181    0.099635    0.093238   -0.000006
siesta:    182   -0.030499   -0.235372    0.000100
siesta:    183   -0.011449    0.238413    0.000062
siesta:    184    0.197819    0.243111   -0.000061
siesta:    185   -0.000168    0.003735    0.001030
siesta:    186   -0.005466   -0.011486    0.004141
siesta:    187   -0.004647    0.012865    0.004541
siesta:    188   -0.001169   -0.004843    0.000893
siesta:    189   -0.020466   -0.004877    0.014138
siesta:    190    0.005849   -0.010935    0.003321
siesta:    191    0.017059    0.002574    0.001294
siesta:    192   -0.108690   -0.040003   -0.000170
siesta:    193   -0.205638   -0.055955    0.000430
siesta:    194    0.197781    0.038605    0.000092
siesta:    195   -0.236053   -0.130284   -0.002946
siesta:    196    0.120113    0.072641    0.000154
siesta:    197    0.235004    0.008084   -0.001325
siesta:    198    0.134778    0.442253   -0.000846
siesta:    199    0.000250   -0.000181    0.002666
siesta:    200    0.234423   -0.008842   -0.000679
siesta:    201    0.120117   -0.072345    0.000089
siesta:    202   -0.234883    0.129172   -0.001225
siesta:    203    0.197633   -0.038301    0.000053
siesta:    204    0.000900    0.006517    0.004198
siesta:    205   -0.076885   -0.045526    0.000004
siesta:    206   -0.205121    0.055930    0.000171
siesta:    207   -0.025344   -0.010614    0.000014
siesta:    208   -0.017400    0.118030   -0.000007
siesta:    209   -0.011142   -0.119542    0.000008
siesta:    210   -0.004099    0.085742    0.000000
siesta:    211    0.143318    0.106055   -0.000004
siesta:    212   -0.011190    0.119445    0.000006
siesta:    213    0.006221   -0.072000    0.000005
siesta:    214    0.019774    0.110485    0.000016
siesta:    215    0.162511   -0.128039    0.000020
siesta:    216   -0.004055   -0.085771    0.000001
siesta:    217    0.000091   -0.004097    0.002005
siesta:    218   -0.000188    0.004544    0.003899
siesta:    219    0.001830   -0.003132    0.000476
siesta:    220    0.001203    0.004241    0.002751
siesta:    221    0.002997   -0.005652   -0.002429
siesta:    222    0.009907   -0.005747   -0.003785
siesta:    223    0.010097   -0.004869   -0.005076
siesta:    224    0.014735    0.010016   -0.008791
siesta:    225    0.017192    0.008487   -0.005878
siesta:    226    0.004437   -0.000095    0.004943
siesta:    227    0.005403    0.008327    0.002303
siesta:    228    0.004655   -0.000808    0.004277
siesta:    229    0.011943    0.013347    0.017524
siesta:    230    0.009976    0.020233    0.020838
siesta:    231   -0.009592    0.006050   -0.006635
siesta:    232    0.013532   -0.018511    0.008102
siesta:    233   -0.001253    0.013138   -0.008850
siesta:    234    0.001263    0.001313   -0.002892
siesta:    235   -0.000518   -0.000567    0.000859
siesta:    236   -0.001119    0.003132   -0.003321
siesta:    237   -0.018169   -0.016953   -0.007271
siesta:    238   -0.036653    0.012816   -0.033502
siesta:    239   -0.001052   -0.024415   -0.009708
siesta:    240    0.000490   -0.006337   -0.024340
siesta:    241   -0.015525   -0.012132   -0.019827
siesta: ----------------------------------------
siesta:    Tot   -0.006074    0.002324   -0.003040

siesta: Stress tensor (static) (eV/Ang**3):
siesta:    -0.011029    0.000003    0.000010
siesta:     0.000003   -0.012264    0.000004
siesta:     0.000010    0.000004    0.000041

siesta: Cell volume =      12665.586541 Ang**3

siesta: Pressure (static):
siesta:                Solid            Molecule  Units
siesta:           0.00008441          0.00009448  Ry/Bohr**3
siesta:           0.00775060          0.00867452  eV/Ang**3
siesta:          12.41782515         13.89810998  kBar
(Free)E+ p_basis*V_orbitals  =      -35578.061871
(Free)Eharris+ p_basis*V_orbitals  =      -35578.061871

siesta: Electric dipole (a.u.)  =    0.000000    0.000000   -0.867680
siesta: Electric dipole (Debye) =    0.000000    0.000000   -2.205423

cite: Please indicate the Siesta version in published work: unreleased 21e88d34b (2025-02-04)
cite: This calculation has made use of features in the following articles
cite: which we encourage you to cite in published work.
cite: (Please see "siesta.bib" for a BibTeX file.)
        Primary SIESTA paper
          DOI: www.doi.org/10.1088/0953-8984/14/11/302


>> End of run:  22-DEC-2025  16:06:18
Job completed
