Executable      : /opt/software/pc2/Siesta/5.2.2/siesta-5.2.2-mpi/build/Src/siesta
Version         : unreleased 21e88d34b (2025-02-04)
Architecture    : x86_64
Compiler version: GNU-13.2.0
Compiler flags  : -O3 -march=native -lscalapack -fallow-argument-mismatch -O3 -march=native
Parallelisations: MPI
NetCDF support
NetCDF-4 support
NetCDF-4 MPI-IO support
Lua support
Native ELPA support
ELSI support. Solvers:
   ELPA (external) 
   NTPoly
   OMM
DFT-D3 support

Runtime information:
* Directory : /scratch/hpc-prf-meop/Projects/2DMaterNanopore/DFT+NEGF+ML/DFT/GRAPHENE_NANOPORE_BIOMOL_ALA/SGLPT_THETA_090_PHI_030_PSI_300
* Running on 64 nodes in parallel.
>> Start of run:  22-DEC-2025  14:51:12

                           *********************** 
                           *  WELCOME TO SIESTA  * 
                           *********************** 

 NOTE: Siesta V5 introduces some new defaults for basis-set generation
 NOTE: which might lead to slightly different numerical results.
 NOTE: Please see the manual for full details and compatibility measures.


reinit: Reading from standard input
reinit: Dumping input in INPUT_TMP.01821
************************** Dump of input data file ****************************
SystemLabel	siesta
NumberOfSpecies	4
NumberOfAtoms	241
%block ChemicalSpecieslabel
    1 6 C
    2 1 H
    3 7 N
    4 8 O
%endblock ChemicalSpecieslabel
LatticeConstant	1.0 Ang
%block LatticeVectors
    24.685487983260018     0.000000000000000     0.000000000000000
    0.000000000000000     25.653911637872664     0.000000000000000
    0.000000000000000     0.000000000000000     19.999999987438091
%endblock LatticeVectors
AtomicCoordinatesFormat  Ang
%block AtomicCoordinatesAndAtomicSpecies
     0.617137199     24.228694325      9.999999993 1
    16.661877175     17.787507251      9.999999999 1
    15.404068592     18.511132114      9.999999994 1
    15.428429989     19.953042385      9.999999993 1
    16.662704388     20.665651042      9.999999993 1
    16.662704388     22.090868355      9.999999993 1
    15.428429989     22.803477011      9.999999993 1
    17.896978787     24.228694325      9.999999993 1
    19.131253187     24.941302981      9.999999993 1
    19.131253187      0.712608657      9.999999993 1
    17.896978787      1.425217313      9.999999993 1
    17.896978787      2.850434626      9.999999993 1
    19.131253187      3.563043283      9.999999993 1
    19.131253187      4.988260596      9.999999993 1
    17.896978787      5.700869253      9.999999993 1
    17.896978787      7.126086567      9.999999993 1
    19.131253187      7.838695223      9.999999993 1
    19.131253187      9.263912536      9.999999993 1
    17.892274080      9.977343270     10.000000008 1
    17.904289481     11.390574713      9.999999998 1
    19.103064970     12.099774496      9.999999989 1
    19.103064968     13.554137138      9.999999988 1
    17.904289479     14.263336921      9.999999996 1
    17.892274081     15.676568367     10.000000006 1
    16.677796396     16.388168018     10.000000006 1
    19.131253187     16.389999102      9.999999993 1
    16.677796396      9.265743615     10.000000009 1
    15.404068591      7.142779522      9.999999986 1
    12.959881192     24.228694325      9.999999993 1
    14.194155590     24.941302981      9.999999993 1
    14.194155590      0.712608657      9.999999993 1
    12.959881192      2.850434626      9.999999993 1
    14.194155590      3.563043283      9.999999993 1
    14.194155590      4.988260596      9.999999993 1
    12.959881192      5.700869253      9.999999993 1
    12.959881187      7.133036192      9.999999994 1
    14.186467353      7.828429446      9.999999983 1
    14.186467358     17.825482185      9.999999998 1
    12.959881191     18.520875446      9.999999986 1
    12.959881192     19.953042385      9.999999993 1
    14.194155590     20.665651042      9.999999993 1
    14.194155590     22.090868355      9.999999993 1
    12.959881192     22.803477011      9.999999993 1
    15.428429989     24.228694325      9.999999993 1
    16.662704388     24.941302981      9.999999993 1
    16.662704388      0.712608657      9.999999993 1
    15.428429989      1.425217313      9.999999993 1
    15.428429989      2.850434626      9.999999993 1
    16.662704388      3.563043283      9.999999993 1
    16.662704388      4.988260596      9.999999993 1
    15.428429989      5.700869253      9.999999993 1
    16.661877175      7.866404380      9.999999988 1
    19.131253187     17.815216416      9.999999993 1
    17.896978787     18.527825072      9.999999993 1
    17.896978787     19.953042385      9.999999993 1
    24.068350784     24.941302981      9.999999993 1
    24.068350784      0.712608657      9.999999993 1
    22.834076384      1.425217313      9.999999993 1
    22.834076384      2.850434626      9.999999993 1
    24.068350784      3.563043283      9.999999993 1
    24.068350784      4.988260596      9.999999993 1
    22.834076384      5.700869253      9.999999993 1
    22.834076384      7.126086567      9.999999993 1
    24.068350784      7.838695223      9.999999993 1
    24.068350784      9.263912536      9.999999993 1
    22.834076384      9.976521193      9.999999993 1
    22.834076384     11.401738506      9.999999993 1
    24.068350784     12.114347162      9.999999993 1
    24.068350784     13.539564475      9.999999993 1
    22.834076384     14.252173132      9.999999993 1
    22.834076384     15.677390445      9.999999993 1
    24.068350784     16.389999102      9.999999993 1
    24.068350784     17.815216416      9.999999993 1
    22.834076384     18.527825072      9.999999993 1
    22.834076384     19.953042385      9.999999993 1
    24.068350784     20.665651042      9.999999993 1
    24.068350784     22.090868355      9.999999993 1
    22.834076384     22.803477011      9.999999993 1
    22.834076384     24.228694325      9.999999993 1
    20.365527586     22.803477011      9.999999993 1
    21.599801985     22.090868355      9.999999993 1
    21.599801985     20.665651042      9.999999993 1
    19.131253187     20.665651042      9.999999993 1
    19.131253187     22.090868355      9.999999993 1
    17.896978787     22.803477011      9.999999993 1
    20.365527586     24.228694325      9.999999993 1
    21.599801985     24.941302981      9.999999993 1
    21.599801985      0.712608657      9.999999993 1
    20.365527586      1.425217313      9.999999993 1
    20.365527586      2.850434626      9.999999993 1
    21.599801985      3.563043283      9.999999993 1
    21.599801985      4.988260596      9.999999993 1
    20.365527586      5.700869253      9.999999993 1
    10.491332393     22.803477011      9.999999993 1
    20.365527586      7.126086567      9.999999993 1
    21.599801985      9.263912536      9.999999993 1
    20.365527586      9.976521193      9.999999993 1
    20.365527586     11.401738506      9.999999993 1
    21.599801985     12.114347162      9.999999993 1
    21.599801985     13.539564475      9.999999993 1
    20.365527586     14.252173132      9.999999993 1
    20.365527586     15.677390445      9.999999993 1
    21.599801985     16.389999102      9.999999993 1
    21.599801985     17.815216416      9.999999993 1
    20.365527586     18.527825072      9.999999993 1
    20.365527586     19.953042385      9.999999993 1
    21.599801985      7.838695223      9.999999993 1
    11.725606792     22.090868355      9.999999993 1
    12.959881192      1.425217313      9.999999993 1
    10.491332393     19.953042385      9.999999993 1
     4.319960397      3.563043283      9.999999993 1
     4.319960397      4.988260596      9.999999993 1
     3.085685998      5.700869253      9.999999993 1
     3.085685998      7.126086567      9.999999993 1
     4.319960397      7.838695223      9.999999993 1
     4.319960397      9.263912536      9.999999993 1
     3.085685998      9.976521193      9.999999993 1
     3.085685998     11.401738506      9.999999993 1
     4.319960397     12.114347162      9.999999993 1
     4.319960397     13.539564475      9.999999993 1
     3.085685998     14.252173132      9.999999993 1
     3.085685998     15.677390445      9.999999993 1
     4.319960397     16.389999102      9.999999993 1
     4.319960397     17.815216416      9.999999993 1
     3.085685998     18.527825072      9.999999993 1
     3.085685998     19.953042385      9.999999993 1
     4.319960397     20.665651042      9.999999993 1
     4.319960397     22.090868355      9.999999993 1
     3.085685998     22.803477011      9.999999993 1
    11.725606792     20.665651042      9.999999993 1
     6.788509196     24.941302981      9.999999993 1
     6.788509196      0.712608657      9.999999993 1
     5.554234797      1.425217313      9.999999993 1
     3.085685998      2.850434626      9.999999993 1
     3.085685998      1.425217313      9.999999993 1
     4.319960397      0.712608657      9.999999993 1
     4.319960397     24.941302981      9.999999993 1
     1.851411599     24.941302981      9.999999993 1
     1.851411599      0.712608657      9.999999993 1
     0.617137199      1.425217313      9.999999993 1
     0.617137199      2.850434626      9.999999993 1
     1.851411599      3.563043283      9.999999993 1
     1.851411599      4.988260596      9.999999993 1
     0.617137199      5.700869253      9.999999993 1
     0.617137199      7.126086567      9.999999993 1
     1.851411599      7.838695223      9.999999993 1
     1.851411599      9.263912536      9.999999993 1
     0.617137199      9.976521193      9.999999993 1
     5.554234797      2.850434626      9.999999993 1
     0.617137199     11.401738506      9.999999993 1
     1.851411599     13.539564475      9.999999993 1
     0.617137199     14.252173132      9.999999993 1
     0.617137199     15.677390445      9.999999993 1
     1.851411599     16.389999102      9.999999993 1
     1.851411599     17.815216416      9.999999993 1
     0.617137199     18.527825072      9.999999993 1
     0.617137199     19.953042385      9.999999993 1
     1.851411599     20.665651042      9.999999993 1
     1.851411599     22.090868355      9.999999993 1
     0.617137199     22.803477011      9.999999993 1
     3.085685998     24.228694325      9.999999993 1
     1.851411599     12.114347162      9.999999993 1
     6.788509196      3.563043283      9.999999993 1
     5.554234797     24.228694325      9.999999993 1
     5.554234797      5.700869253      9.999999993 1
     8.027488304      9.977343270      9.999999986 1
     8.015472905     11.390574713     10.000000004 1
     8.015472907     14.263336922     10.000000000 1
     6.788509196      4.988260596      9.999999993 1
     9.241965996     16.388168021     10.000000023 1
     9.257885205     17.787507251     10.000000006 1
     8.022783595     18.527825072      9.999999993 1
     8.022783595     19.953042385      9.999999993 1
     9.257057994     20.665651042      9.999999993 1
     9.257057994     22.090868355      9.999999993 1
     8.022783595     22.803477011      9.999999993 1
    10.491332393     24.228694325      9.999999993 1
    11.725606792     24.941302981      9.999999993 1
    11.725606792      0.712608657      9.999999993 1
    10.491332393      1.425217313      9.999999993 1
    10.491332393      2.850434626      9.999999993 1
    11.725606792      3.563043283      9.999999993 1
    11.725606792      4.988260596      9.999999993 1
    10.491332393      5.700869253      9.999999993 1
    10.515693795      7.142779522     10.000000027 1
    11.733295023      7.828429455     10.000000025 1
    11.733295023     17.825482186      9.999999992 1
    10.515693793     18.511132117      9.999999999 1
     9.241965990      9.265743609      9.999999987 1
     9.257885209      7.866404384     10.000000000 1
     8.027488313     15.676568366     10.000000023 1
     8.022783595      5.700869253      9.999999993 1
     5.554234797      7.126086567      9.999999993 1
     6.788509196      7.838695223      9.999999993 1
     6.788509196      9.263912536      9.999999993 1
     5.554234797      9.976521193      9.999999993 1
     5.554234797     11.401738506      9.999999993 1
     8.022783595      7.126086567      9.999999993 1
     6.816697412     13.554137139      9.999999981 1
     5.554234797     14.252173132      9.999999993 1
     5.554234797     15.677390445      9.999999993 1
     6.788509196     16.389999102      9.999999993 1
     6.788509196     17.815216416      9.999999993 1
     6.816697409     12.099774496      9.999999990 1
     5.554234797     19.953042385      9.999999993 1
     5.554234797     18.527825072      9.999999993 1
     9.257057994      3.563043283      9.999999993 1
     8.022783595      2.850434626      9.999999993 1
     8.022783595      1.425217313      9.999999993 1
     9.257057994      0.712608657      9.999999993 1
     9.257057994      4.988260596      9.999999993 1
     8.022783595     24.228694325      9.999999993 1
     5.554234797     22.803477011      9.999999993 1
     6.788509196     22.090868355      9.999999993 1
     6.788509196     20.665651042      9.999999993 1
     9.257057994     24.941302981      9.999999993 1
    15.744565851     15.799432360     10.000000001 2
    15.744565859      9.854479278      9.999999998 2
    14.143251523     16.722826843     10.000000023 2
    14.143251522      8.931084792      9.999999981 2
    11.776510846     16.722826837      9.999999998 2
    10.175196553     15.799432385     10.000000005 2
     8.992643581     13.750494156      9.999999994 2
     8.992643579     11.903417481      9.999999987 2
    10.175196533      9.854479269      9.999999992 2
    16.927118815     11.903417488     10.000000007 2
    11.776510861      8.931084796      9.999999995 2
    16.927118811     13.750494130      9.999999987 2
    11.970433451     12.551011797     14.550922133 1
    12.112066327     14.030703528     15.008688764 1
    13.305099003     11.823231851     14.775348181 1
    11.577667422     14.330595692     13.250327798 2
    11.181198306     12.096510978     15.196623775 2
    13.205462277     10.728560611     14.591493484 2
    14.088428254     12.232967892     14.093205465 2
    13.638962705     11.994491344     15.822791275 2
    12.200033838     12.003706610     12.500000027 2
    10.597059729     12.047394343     12.987398631 2
    11.516233316     12.540101031     13.087900650 3
    11.815443967     14.925351027     14.034366327 4
    12.469277462     14.332931543     16.138919043 4
%endblock AtomicCoordinatesAndAtomicSpecies
###K-Point Mesh###
%block kgrid_Monkhorst_Pack
1   0   0   0.0
0   1   0   0.0
0   0   1   0.0
%endblock kgrid_Monkhorst_Pack
###SCF PARAMS###
MeshCutoff          250 Ry
PAO.BasisType       split
PAO.BasisSize       DZP
PAO.EnergyShift     0.1 eV
XC.functional VDW
XC.authors KBM
MaxSCFIterations   2000
SCF.MustConverge    T
DM.MixingWeight    0.01
DM.NumberPulay     20
DM.Tolerance        1.d-5
DM.UseSaveDM        T
ElectronicTemperature 300 K
DirectPhi           T
###DIAGONALIZATION###
SolutionMethod      diagon
###DIAG-ALGORITHM###
# Diag.Algorithm ELPA
###CACHE WAVEFUNC###
# Diag.WFS.Cache cdf
###PARALLELIZATION###
Diag.ParallelOverK  F
###MOLECULAR DYNAMICS###
MD.TypeOfRun        CG
MD.NumCGsteps       0
MD.UseSaveXV        T
MD.UseSaveCG        T
************************** End of input data file *****************************

reinit: -----------------------------------------------------------------------
reinit: System Name: 
reinit: -----------------------------------------------------------------------
reinit: System Label: siesta
reinit: -----------------------------------------------------------------------

initatom: Reading input for the pseudopotentials and atomic orbitals ----------
Species number:   1 Atomic number:    6 Label: C
Species number:   2 Atomic number:    1 Label: H
Species number:   3 Atomic number:    7 Label: N
Species number:   4 Atomic number:    8 Label: O

Ground state valence configuration (from tables):   2s02  2p02  3d00  4f00
Ground state valence configuration (from tables):   1s01  2p00  3d00  4f00
Ground state valence configuration (from tables):   2s02  2p03  3d00  4f00
Ground state valence configuration (from tables):   2s02  2p04  3d00  4f00

---- Processing specs for species: C
Reading pseudopotential information in formatted form from:
  C.psf

---- Processing specs for species: H
Reading pseudopotential information in formatted form from:
  H.psf

---- Processing specs for species: N
Reading pseudopotential information in formatted form from:
  N.psf

---- Processing specs for species: O
Reading pseudopotential information in formatted form from:
  O.psf

---- Pseudopotential check for  C

Pseudopotential generated from a fully relativistic atomic calculation
There are spin-orbit semi-local pseudopotentials available

Pseudized shells:
2s( 2.00) rc: 1.01
2p( 2.00) rc: 1.28
3d( 0.00) rc: 1.60
4f( 0.00) rc: 1.60
Valence configuration for ps generation: (assumed as above)

---- Pseudopotential check for  H

Pseudopotential generated from a fully relativistic atomic calculation
There are spin-orbit semi-local pseudopotentials available

Pseudized shells:
1s( 1.00) rc: 1.31
2p( 0.00) rc: 1.13
3d( 0.00) rc: 1.09
4f( 0.00) rc: 1.14
Valence configuration for ps generation: (assumed as above)

---- Pseudopotential check for N 

Pseudopotential generated from a fully relativistic atomic calculation
There are spin-orbit semi-local pseudopotentials available

Pseudized shells:
2s( 2.00) rc: 1.29
2p( 3.00) rc: 1.42
3d( 0.00) rc: 1.74
4f( 0.00) rc: 2.98
Valence configuration for ps generation: (assumed as above)

---- Pseudopotential check for  O

Pseudopotential generated from a fully relativistic atomic calculation
There are spin-orbit semi-local pseudopotentials available

Pseudized shells:
2s( 2.00) rc: 0.77
2p( 4.00) rc: 1.77
3d( 0.00) rc: 1.07
4f( 0.00) rc: 1.66
Valence configuration for ps generation: (assumed as above)
For C, standard SIESTA heuristics set lmxkb to 3
 (one more than the basis l, including polarization orbitals).
Use PS.lmax or PS.KBprojectors blocks to override.
For H, standard SIESTA heuristics set lmxkb to 2
 (one more than the basis l, including polarization orbitals).
Use PS.lmax or PS.KBprojectors blocks to override.
For N, standard SIESTA heuristics set lmxkb to 3
 (one more than the basis l, including polarization orbitals).
Use PS.lmax or PS.KBprojectors blocks to override.
For O, standard SIESTA heuristics set lmxkb to 3
 (one more than the basis l, including polarization orbitals).
Use PS.lmax or PS.KBprojectors blocks to override.

<basis_specs>
===============================================================================
C                    Z=   6    Mass=  12.011        Charge= 0.17977+309
Lmxo=2 Lmxkb= 3    BasisType=split      Semic=F
L=0  Nsemic=0  Cnfigmx=2
          i=1  nzeta=2  polorb=0  (2s)
            splnorm:   0.15000    
               vcte:    40.000    
               rinn:  -0.90000    
               qcoe:    0.0000    
               qyuk:    0.0000    
               qwid:   0.10000E-01
                rcs:    0.0000      0.0000    
            lambdas:    1.0000      1.0000    
L=1  Nsemic=0  Cnfigmx=2
          i=1  nzeta=2  polorb=1  (2p)  (to be polarized perturbatively)
            splnorm:   0.15000    
               vcte:    40.000    
               rinn:  -0.90000    
               qcoe:    0.0000    
               qyuk:    0.0000    
               qwid:   0.10000E-01
                rcs:    0.0000      0.0000    
            lambdas:    1.0000      1.0000    
L=2  Nsemic=0  Cnfigmx=3
          i=1  nzeta=0  polorb=0  (3d)  (perturbative polarization orbital) (from 2p)
-------------------------------------------------------------------------------
L=0  Nkbl=1  erefs: 0.17977+309
L=1  Nkbl=1  erefs: 0.17977+309
L=2  Nkbl=1  erefs: 0.17977+309
L=3  Nkbl=1  erefs: 0.17977+309
===============================================================================
</basis_specs>

Using PAO.SplitTailNorm
atom: Called for C                     (Z =   6)
Maximum radius (at nrval) set to   50.00000 8518

read_vps: Pseudopotential generation method:
read_vps: ATM4.1.0  Troullier-Martins                       
Valence charge in pseudo generation:    4.00000

read_vps: Pseudopotential includes a core correction:
read_vps: Pseudo-core for xc-correction

xc_check: Exchange-correlation functional:
xc_check: VDW Klimes-Bowler-Michaelides
xc_check: WARNING: Pseudopotential generated with GGA PBE functional
V l=0 = -2*Zval/r beyond r=  1.3182
V l=1 = -2*Zval/r beyond r=  1.3464
V l=2 = -2*Zval/r beyond r=  1.5833
V l=3 = -2*Zval/r beyond r=  1.5786
All V_l potentials equal beyond r=  1.5770
This should be close to max(r_c) in ps generation
All pots = -2*Zval/r beyond r=  1.5833
Using small-core scheme (local charge) for Vlocal

VLOCAL_FROM_CHLOCAL: 99.0% of the norm of Vloc inside     17.455 Ry
VLOCAL_FROM_CHLOCAL: 99.9% of the norm of Vloc inside     39.780 Ry
atom: Maximum radius for chlocal:    1.88237
atom: Maximum radius for r*vlocal+2*Zval:    1.72643

KBgen: Kleinman-Bylander projectors: 
GHOST: No ghost state for L =  0
   l= 0   rc=  1.736877   el= -1.020388   Ekb=  8.249114   kbcos=  0.220505
GHOST: No ghost state for L =  1
   l= 1   rc=  1.735131   el= -0.401258   Ekb= -5.619827   kbcos= -0.328599
GHOST: No ghost state for L =  2
   l= 2   rc=  2.031796   el=  0.013225   Ekb= -0.930857   kbcos= -0.011208
GHOST: No ghost state for L =  3
   l= 3   rc=  2.292119   el=  0.019576   Ekb= -0.391040   kbcos= -0.001576

KBgen: Total number of Kleinman-Bylander projectors:  16
atom: -------------------------------------------------------------------------

atom: SANKEY-TYPE ORBITALS:
atom: Selected multiple-zeta basis: split     

SPLIT: Orbitals with angular momentum L= 0

SPLIT: Basis orbitals for state 2s

SPLIT: PAO cut-off radius determined from an
SPLIT: energy shift=  0.007350 Ry
Split based on tail norm

   izeta = 1
                 lambda =    1.000000
                     rc =    4.649135
                 energy =   -1.012056
                kinetic =    0.924199
    potential(screened) =   -1.936254
       potential(ionic) =   -5.500926

   izeta = 2
                 rmatch =    3.097535
              splitnorm =    0.150000
                 energy =   -0.753048
                kinetic =    1.677436
    potential(screened) =   -2.430485
       potential(ionic) =   -6.288589

SPLIT: Orbitals with angular momentum L= 1

SPLIT: Basis orbitals for state 2p

SPLIT: PAO cut-off radius determined from an
SPLIT: energy shift=  0.007350 Ry
Split based on tail norm

   izeta = 1
                 lambda =    1.000000
                     rc =    5.669310
                 energy =   -0.392975
                kinetic =    2.506148
    potential(screened) =   -2.899123
       potential(ionic) =   -6.340802

   izeta = 2
                 rmatch =    3.774182
              splitnorm =    0.150000
                 energy =   -0.275270
                kinetic =    3.603259
    potential(screened) =   -3.878528
       potential(ionic) =   -7.663255

POLgen: Perturbative polarization orbital with L=  2

POLgen: Polarization orbital for state 2p
Split based on tail norm

   izeta = 1
                     rc =    5.669310
                 energy =    1.122389
                kinetic =    2.278964
    potential(screened) =   -1.156575
       potential(ionic) =   -3.981653
atom: Total number of Sankey-type orbitals: 13

atm_pop: Valence configuration (for local Pseudopot. screening):
 2s( 2.00)                                                            
 2p( 2.00)                                                            
 3d( 0.00)                                                            
Vna: chval, zval:    4.00000   4.00000

Vna:  Cut-off radius for the neutral-atom potential:   5.669310
comcore: Pseudo-core radius Rcore=  1.772167

atom: _________________________________________________________________________

<basis_specs>
===============================================================================
H                    Z=   1    Mass=  1.0080        Charge= 0.17977+309
Lmxo=1 Lmxkb= 2    BasisType=split      Semic=F
L=0  Nsemic=0  Cnfigmx=1
          i=1  nzeta=2  polorb=1  (1s)  (to be polarized perturbatively)
            splnorm:   0.15000    
               vcte:    40.000    
               rinn:  -0.90000    
               qcoe:    0.0000    
               qyuk:    0.0000    
               qwid:   0.10000E-01
                rcs:    0.0000      0.0000    
            lambdas:    1.0000      1.0000    
L=1  Nsemic=0  Cnfigmx=2
          i=1  nzeta=0  polorb=0  (2p)  (perturbative polarization orbital) (from 1s)
-------------------------------------------------------------------------------
L=0  Nkbl=1  erefs: 0.17977+309
L=1  Nkbl=1  erefs: 0.17977+309
L=2  Nkbl=1  erefs: 0.17977+309
===============================================================================
</basis_specs>

Using PAO.SplitTailNorm
atom: Called for H                     (Z =   1)
Maximum radius (at nrval) set to   50.00000 8518

read_vps: Pseudopotential generation method:
read_vps: ATM4.1.0  Troullier-Martins                       
Valence charge in pseudo generation:    1.00000

xc_check: Exchange-correlation functional:
xc_check: VDW Klimes-Bowler-Michaelides
xc_check: WARNING: Pseudopotential generated with GGA PBE functional
V l=0 = -2*Zval/r beyond r=  1.3024
V l=1 = -2*Zval/r beyond r=  1.2802
V l=2 = -2*Zval/r beyond r=  1.2802
All V_l potentials equal beyond r=  1.3011
This should be close to max(r_c) in ps generation
All pots = -2*Zval/r beyond r=  1.3024
Using small-core scheme (local charge) for Vlocal

VLOCAL_FROM_CHLOCAL: 99.0% of the norm of Vloc inside     25.643 Ry
VLOCAL_FROM_CHLOCAL: 99.9% of the norm of Vloc inside     58.442 Ry
atom: Maximum radius for chlocal:    1.51933
atom: Maximum radius for r*vlocal+2*Zval:    1.37795

KBgen: Kleinman-Bylander projectors: 
GHOST: No ghost state for L =  0
   l= 0   rc=  1.452036   el= -0.494844   Ekb= -1.962033   kbcos= -0.366867
GHOST: No ghost state for L =  1
   l= 1   rc=  1.709150   el=  0.006534   Ekb= -0.631641   kbcos= -0.022353
GHOST: No ghost state for L =  2
   l= 2   rc=  2.001398   el=  0.013276   Ekb= -0.260152   kbcos= -0.002632

KBgen: Total number of Kleinman-Bylander projectors:   9
atom: -------------------------------------------------------------------------

atom: SANKEY-TYPE ORBITALS:
atom: Selected multiple-zeta basis: split     

SPLIT: Orbitals with angular momentum L= 0

SPLIT: Basis orbitals for state 1s

SPLIT: PAO cut-off radius determined from an
SPLIT: energy shift=  0.007350 Ry
Split based on tail norm

   izeta = 1
                 lambda =    1.000000
                     rc =    5.424839
                 energy =   -0.486555
                kinetic =    0.944729
    potential(screened) =   -1.431284
       potential(ionic) =   -1.937848

   izeta = 2
                 rmatch =    3.582433
              splitnorm =    0.150000
                 energy =   -0.330505
                kinetic =    1.688410
    potential(screened) =   -2.018915
       potential(ionic) =   -2.546203

POLgen: Perturbative polarization orbital with L=  1

POLgen: Polarization orbital for state 1s
Split based on tail norm

   izeta = 1
                     rc =    5.424839
                 energy =    0.650312
                kinetic =    1.305598
    potential(screened) =   -0.655287
       potential(ionic) =   -1.130048
atom: Total number of Sankey-type orbitals:  5

atm_pop: Valence configuration (for local Pseudopot. screening):
 1s( 1.00)                                                            
 2p( 0.00)                                                            
Vna: chval, zval:    1.00000   1.00000

Vna:  Cut-off radius for the neutral-atom potential:   5.424839

atom: _________________________________________________________________________

<basis_specs>
===============================================================================
N                    Z=   7    Mass=  14.007        Charge= 0.17977+309
Lmxo=2 Lmxkb= 3    BasisType=split      Semic=F
L=0  Nsemic=0  Cnfigmx=2
          i=1  nzeta=2  polorb=0  (2s)
            splnorm:   0.15000    
               vcte:    40.000    
               rinn:  -0.90000    
               qcoe:    0.0000    
               qyuk:    0.0000    
               qwid:   0.10000E-01
                rcs:    0.0000      0.0000    
            lambdas:    1.0000      1.0000    
L=1  Nsemic=0  Cnfigmx=2
          i=1  nzeta=2  polorb=1  (2p)  (to be polarized perturbatively)
            splnorm:   0.15000    
               vcte:    40.000    
               rinn:  -0.90000    
               qcoe:    0.0000    
               qyuk:    0.0000    
               qwid:   0.10000E-01
                rcs:    0.0000      0.0000    
            lambdas:    1.0000      1.0000    
L=2  Nsemic=0  Cnfigmx=3
          i=1  nzeta=0  polorb=0  (3d)  (perturbative polarization orbital) (from 2p)
-------------------------------------------------------------------------------
L=0  Nkbl=1  erefs: 0.17977+309
L=1  Nkbl=1  erefs: 0.17977+309
L=2  Nkbl=1  erefs: 0.17977+309
L=3  Nkbl=1  erefs: 0.17977+309
===============================================================================
</basis_specs>

Using PAO.SplitTailNorm
atom: Called for N                     (Z =   7)
Maximum radius (at nrval) set to   50.00000 8518

read_vps: Pseudopotential generation method:
read_vps: ATM4.1.0  Troullier-Martins                       
Valence charge in pseudo generation:    5.00000

read_vps: Pseudopotential includes a core correction:
read_vps: Pseudo-core for xc-correction

xc_check: Exchange-correlation functional:
xc_check: VDW Klimes-Bowler-Michaelides
xc_check: WARNING: Pseudopotential generated with GGA PBE functional
V l=0 = -2*Zval/r beyond r=  1.3919
V l=1 = -2*Zval/r beyond r=  1.4145
V l=2 = -2*Zval/r beyond r=  1.7230
V l=3 = -2*Zval/r beyond r=  2.9342
All V_l potentials equal beyond r=  2.9166
This should be close to max(r_c) in ps generation
All pots = -2*Zval/r beyond r=  2.9342
Using small-core scheme (local charge) for Vlocal

VLOCAL_FROM_CHLOCAL: 99.0% of the norm of Vloc inside      5.103 Ry
VLOCAL_FROM_CHLOCAL: 99.9% of the norm of Vloc inside     11.630 Ry
atom: Maximum radius for chlocal:    3.45541
atom: Maximum radius for r*vlocal+2*Zval:    3.20822

KBgen: Kleinman-Bylander projectors: 
GHOST: No ghost state for L =  0
   l= 0   rc=  3.023842   el= -1.375728   Ekb= -2.823702   kbcos= -0.744201
GHOST: No ghost state for L =  1
   l= 1   rc=  2.987653   el= -0.533023   Ekb= -8.682923   kbcos= -0.586664
GHOST: No ghost state for L =  2
   l= 2   rc=  3.306234   el=  0.013276   Ekb= -1.644735   kbcos= -0.033118
GHOST: No ghost state for L =  3
   l= 3   rc=  3.448482   el=  0.019583   Ekb= -0.283699   kbcos= -0.015721

KBgen: Total number of Kleinman-Bylander projectors:  16
atom: -------------------------------------------------------------------------

atom: SANKEY-TYPE ORBITALS:
atom: Selected multiple-zeta basis: split     

SPLIT: Orbitals with angular momentum L= 0

SPLIT: Basis orbitals for state 2s

SPLIT: PAO cut-off radius determined from an
SPLIT: energy shift=  0.007350 Ry
Split based on tail norm

   izeta = 1
                 lambda =    1.000000
                     rc =    4.081165
                 energy =   -1.367466
                kinetic =    1.207915
    potential(screened) =   -2.575381
       potential(ionic) =   -8.096668

   izeta = 2
                 rmatch =    2.654003
              splitnorm =    0.150000
                 energy =   -1.049355
                kinetic =    2.089693
    potential(screened) =   -3.139048
       potential(ionic) =   -9.141946

SPLIT: Orbitals with angular momentum L= 1

SPLIT: Basis orbitals for state 2p

SPLIT: PAO cut-off radius determined from an
SPLIT: energy shift=  0.007350 Ry
Split based on tail norm

   izeta = 1
                 lambda =    1.000000
                     rc =    4.996964
                 energy =   -0.524823
                kinetic =    3.499383
    potential(screened) =   -4.024206
       potential(ionic) =   -9.360818

   izeta = 2
                 rmatch =    3.237319
              splitnorm =    0.150000
                 energy =   -0.376275
                kinetic =    4.926275
    potential(screened) =   -5.302550
       potential(ionic) =  -11.169650

POLgen: Perturbative polarization orbital with L=  2

POLgen: Polarization orbital for state 2p
Split based on tail norm

   izeta = 1
                     rc =    4.996964
                 energy =    1.593927
                kinetic =    3.073939
    potential(screened) =   -1.480013
       potential(ionic) =   -5.759099
atom: Total number of Sankey-type orbitals: 13

atm_pop: Valence configuration (for local Pseudopot. screening):
 2s( 2.00)                                                            
 2p( 3.00)                                                            
 3d( 0.00)                                                            
Vna: chval, zval:    5.00000   5.00000

Vna:  Cut-off radius for the neutral-atom potential:   4.996964
comcore: Pseudo-core radius Rcore=  1.539341

atom: _________________________________________________________________________

<basis_specs>
===============================================================================
O                    Z=   8    Mass=  15.999        Charge= 0.17977+309
Lmxo=2 Lmxkb= 3    BasisType=split      Semic=F
L=0  Nsemic=0  Cnfigmx=2
          i=1  nzeta=2  polorb=0  (2s)
            splnorm:   0.15000    
               vcte:    40.000    
               rinn:  -0.90000    
               qcoe:    0.0000    
               qyuk:    0.0000    
               qwid:   0.10000E-01
                rcs:    0.0000      0.0000    
            lambdas:    1.0000      1.0000    
L=1  Nsemic=0  Cnfigmx=2
          i=1  nzeta=2  polorb=1  (2p)  (to be polarized perturbatively)
            splnorm:   0.15000    
               vcte:    40.000    
               rinn:  -0.90000    
               qcoe:    0.0000    
               qyuk:    0.0000    
               qwid:   0.10000E-01
                rcs:    0.0000      0.0000    
            lambdas:    1.0000      1.0000    
L=2  Nsemic=0  Cnfigmx=3
          i=1  nzeta=0  polorb=0  (3d)  (perturbative polarization orbital) (from 2p)
-------------------------------------------------------------------------------
L=0  Nkbl=1  erefs: 0.17977+309
L=1  Nkbl=1  erefs: 0.17977+309
L=2  Nkbl=1  erefs: 0.17977+309
L=3  Nkbl=1  erefs: 0.17977+309
===============================================================================
</basis_specs>

Using PAO.SplitTailNorm
atom: Called for O                     (Z =   8)
Maximum radius (at nrval) set to   50.00000 8518

read_vps: Pseudopotential generation method:
read_vps: ATM4.1.0  Troullier-Martins                       
Valence charge in pseudo generation:    6.00000

read_vps: Pseudopotential includes a core correction:
read_vps: Pseudo-core for xc-correction

xc_check: Exchange-correlation functional:
xc_check: VDW Klimes-Bowler-Michaelides
xc_check: WARNING: Pseudopotential generated with GGA PBE functional
V l=0 = -2*Zval/r beyond r=  1.7247
V l=1 = -2*Zval/r beyond r=  1.7580
V l=2 = -2*Zval/r beyond r=  1.7247
V l=3 = -2*Zval/r beyond r=  1.7247
All V_l potentials equal beyond r=  1.7562
This should be close to max(r_c) in ps generation
All pots = -2*Zval/r beyond r=  1.7580
Using small-core scheme (local charge) for Vlocal

VLOCAL_FROM_CHLOCAL: 99.0% of the norm of Vloc inside     14.074 Ry
VLOCAL_FROM_CHLOCAL: 99.9% of the norm of Vloc inside     32.075 Ry
atom: Maximum radius for chlocal:    2.10664
atom: Maximum radius for r*vlocal+2*Zval:    1.94000

KBgen: Kleinman-Bylander projectors: 
GHOST: No ghost state for L =  0
   l= 0   rc=  1.914815   el= -1.777109   Ekb=-12.883099   kbcos= -0.199777
GHOST: No ghost state for L =  1
   l= 1   rc=  1.905215   el= -0.682147   Ekb= -6.438893   kbcos= -0.577559
GHOST: No ghost state for L =  2
   l= 2   rc=  2.093978   el=  0.013299   Ekb= -2.963186   kbcos= -0.008111
GHOST: No ghost state for L =  3
   l= 3   rc=  2.402901   el=  0.019585   Ekb= -0.577341   kbcos= -0.002012

KBgen: Total number of Kleinman-Bylander projectors:  16
atom: -------------------------------------------------------------------------

atom: SANKEY-TYPE ORBITALS:
atom: Selected multiple-zeta basis: split     

SPLIT: Orbitals with angular momentum L= 0

SPLIT: Basis orbitals for state 2s

SPLIT: PAO cut-off radius determined from an
SPLIT: energy shift=  0.007350 Ry
Split based on tail norm

   izeta = 1
                 lambda =    1.000000
                     rc =    3.655005
                 energy =   -1.768939
                kinetic =    1.719971
    potential(screened) =   -3.488910
       potential(ionic) =  -11.303034

   izeta = 2
                 rmatch =    2.326911
              splitnorm =    0.150000
                 energy =   -1.349000
                kinetic =    3.044643
    potential(screened) =   -4.393643
       potential(ionic) =  -12.875785

SPLIT: Orbitals with angular momentum L= 1

SPLIT: Basis orbitals for state 2p

SPLIT: PAO cut-off radius determined from an
SPLIT: energy shift=  0.007350 Ry
Split based on tail norm

   izeta = 1
                 lambda =    1.000000
                     rc =    4.475410
                 energy =   -0.673990
                kinetic =    4.284088
    potential(screened) =   -4.958077
       potential(ionic) =  -12.470506

   izeta = 2
                 rmatch =    2.832915
              splitnorm =    0.150000
                 energy =   -0.486678
                kinetic =    5.911252
    potential(screened) =   -6.397931
       potential(ionic) =  -14.613396

POLgen: Perturbative polarization orbital with L=  2

POLgen: Polarization orbital for state 2p
Split based on tail norm

   izeta = 1
                     rc =    4.475410
                 energy =    2.156729
                kinetic =    4.153113
    potential(screened) =   -1.996384
       potential(ionic) =   -8.041506
atom: Total number of Sankey-type orbitals: 13

atm_pop: Valence configuration (for local Pseudopot. screening):
 2s( 2.00)                                                            
 2p( 4.00)                                                            
 3d( 0.00)                                                            
Vna: chval, zval:    6.00000   6.00000

Vna:  Cut-off radius for the neutral-atom potential:   4.475410
comcore: Pseudo-core radius Rcore=  1.364142

atom: _________________________________________________________________________

prinput: Basis input 

PAO.BasisType split     

%block ChemicalSpeciesLabel
    1    6 C                       # Species index, atomic number, species label
    2    1 H                       # Species index, atomic number, species label
    3    7 N                       # Species index, atomic number, species label
    4    8 O                       # Species index, atomic number, species label
%endblock ChemicalSpeciesLabel

%block PAO.Basis                 # Define Basis set
# WARNING: This information might be incomplete!
C                     2                    # Species label, number of l-shells
 n=2   0   2                         # n, l, Nzeta 
   4.649      3.098   
   1.000      1.000   
 n=2   1   2 P   1                   # n, l, Nzeta, Polarization, NzetaPol
   5.669      3.774   
   1.000      1.000   
H                     1                    # Species label, number of l-shells
 n=1   0   2 P   1                   # n, l, Nzeta, Polarization, NzetaPol
   5.425      3.582   
   1.000      1.000   
N                     2                    # Species label, number of l-shells
 n=2   0   2                         # n, l, Nzeta 
   4.081      2.654   
   1.000      1.000   
 n=2   1   2 P   1                   # n, l, Nzeta, Polarization, NzetaPol
   4.997      3.237   
   1.000      1.000   
O                     2                    # Species label, number of l-shells
 n=2   0   2                         # n, l, Nzeta 
   3.655      2.327   
   1.000      1.000   
 n=2   1   2 P   1                   # n, l, Nzeta, Polarization, NzetaPol
   4.475      2.833   
   1.000      1.000   
%endblock PAO.Basis

prinput: ----------------------------------------------------------------------

Dumping basis to NetCDF file C.ion.nc
Dumping basis to NetCDF file H.ion.nc
Dumping basis to NetCDF file N.ion.nc
Dumping basis to NetCDF file O.ion.nc
coor:   Atomic-coordinates input format  =     Cartesian coordinates
coor:                                          (in Angstroms)

siesta: WARNING: XV file not found

siesta: Atomic coordinates (Bohr) and species
siesta:      1.16622  45.78560  18.89726  1        1
siesta:     31.48638  33.61352  18.89726  1        2
siesta:     29.10947  34.98097  18.89726  1        3
siesta:     29.15551  37.70579  18.89726  1        4
siesta:     31.48795  39.05242  18.89726  1        5
siesta:     31.48795  41.74569  18.89726  1        6
siesta:     29.15551  43.09233  18.89726  1        7
siesta:     33.82039  45.78560  18.89726  1        8
siesta:     36.15283  47.13223  18.89726  1        9
siesta:     36.15283   1.34664  18.89726  1       10
siesta:     33.82039   2.69327  18.89726  1       11
siesta:     33.82039   5.38654  18.89726  1       12
siesta:     36.15283   6.73318  18.89726  1       13
siesta:     36.15283   9.42645  18.89726  1       14
siesta:     33.82039  10.77308  18.89726  1       15
siesta:     33.82039  13.46635  18.89726  1       16
siesta:     36.15283  14.81299  18.89726  1       17
siesta:     36.15283  17.50626  18.89726  1       18
siesta:     33.81150  18.85445  18.89726  1       19
siesta:     33.83420  21.52507  18.89726  1       20
siesta:     36.09956  22.86526  18.89726  1       21
siesta:     36.09956  25.61361  18.89726  1       22
siesta:     33.83420  26.95380  18.89726  1       23
siesta:     33.81150  29.62442  18.89726  1       24
siesta:     31.51647  30.96915  18.89726  1       25
siesta:     36.15283  30.97261  18.89726  1       26
siesta:     31.51647  17.50972  18.89726  1       27
siesta:     29.10947  13.49790  18.89726  1       28
siesta:     24.49063  45.78560  18.89726  1       29
siesta:     26.82307  47.13223  18.89726  1       30
siesta:     26.82307   1.34664  18.89726  1       31
siesta:     24.49063   5.38654  18.89726  1       32
siesta:     26.82307   6.73318  18.89726  1       33
siesta:     26.82307   9.42645  18.89726  1       34
siesta:     24.49063  10.77308  18.89726  1       35
siesta:     24.49063  13.47948  18.89726  1       36
siesta:     26.80854  14.79359  18.89726  1       37
siesta:     26.80854  33.68528  18.89726  1       38
siesta:     24.49063  34.99938  18.89726  1       39
siesta:     24.49063  37.70579  18.89726  1       40
siesta:     26.82307  39.05242  18.89726  1       41
siesta:     26.82307  41.74569  18.89726  1       42
siesta:     24.49063  43.09233  18.89726  1       43
siesta:     29.15551  45.78560  18.89726  1       44
siesta:     31.48795  47.13223  18.89726  1       45
siesta:     31.48795   1.34664  18.89726  1       46
siesta:     29.15551   2.69327  18.89726  1       47
siesta:     29.15551   5.38654  18.89726  1       48
siesta:     31.48795   6.73318  18.89726  1       49
siesta:     31.48795   9.42645  18.89726  1       50
siesta:     29.15551  10.77308  18.89726  1       51
siesta:     31.48638  14.86535  18.89726  1       52
siesta:     36.15283  33.66588  18.89726  1       53
siesta:     33.82039  35.01252  18.89726  1       54
siesta:     33.82039  37.70579  18.89726  1       55
siesta:     45.48259  47.13223  18.89726  1       56
siesta:     45.48259   1.34664  18.89726  1       57
siesta:     43.15015   2.69327  18.89726  1       58
siesta:     43.15015   5.38654  18.89726  1       59
siesta:     45.48259   6.73318  18.89726  1       60
siesta:     45.48259   9.42645  18.89726  1       61
siesta:     43.15015  10.77308  18.89726  1       62
siesta:     43.15015  13.46635  18.89726  1       63
siesta:     45.48259  14.81299  18.89726  1       64
siesta:     45.48259  17.50626  18.89726  1       65
siesta:     43.15015  18.85289  18.89726  1       66
siesta:     43.15015  21.54616  18.89726  1       67
siesta:     45.48259  22.89280  18.89726  1       68
siesta:     45.48259  25.58607  18.89726  1       69
siesta:     43.15015  26.93270  18.89726  1       70
siesta:     43.15015  29.62597  18.89726  1       71
siesta:     45.48259  30.97261  18.89726  1       72
siesta:     45.48259  33.66588  18.89726  1       73
siesta:     43.15015  35.01252  18.89726  1       74
siesta:     43.15015  37.70579  18.89726  1       75
siesta:     45.48259  39.05242  18.89726  1       76
siesta:     45.48259  41.74569  18.89726  1       77
siesta:     43.15015  43.09233  18.89726  1       78
siesta:     43.15015  45.78560  18.89726  1       79
siesta:     38.48527  43.09233  18.89726  1       80
siesta:     40.81771  41.74569  18.89726  1       81
siesta:     40.81771  39.05242  18.89726  1       82
siesta:     36.15283  39.05242  18.89726  1       83
siesta:     36.15283  41.74569  18.89726  1       84
siesta:     33.82039  43.09233  18.89726  1       85
siesta:     38.48527  45.78560  18.89726  1       86
siesta:     40.81771  47.13223  18.89726  1       87
siesta:     40.81771   1.34664  18.89726  1       88
siesta:     38.48527   2.69327  18.89726  1       89
siesta:     38.48527   5.38654  18.89726  1       90
siesta:     40.81771   6.73318  18.89726  1       91
siesta:     40.81771   9.42645  18.89726  1       92
siesta:     38.48527  10.77308  18.89726  1       93
siesta:     19.82574  43.09233  18.89726  1       94
siesta:     38.48527  13.46635  18.89726  1       95
siesta:     40.81771  17.50626  18.89726  1       96
siesta:     38.48527  18.85289  18.89726  1       97
siesta:     38.48527  21.54616  18.89726  1       98
siesta:     40.81771  22.89280  18.89726  1       99
siesta:     40.81771  25.58607  18.89726  1      100
siesta:     38.48527  26.93270  18.89726  1      101
siesta:     38.48527  29.62597  18.89726  1      102
siesta:     40.81771  30.97261  18.89726  1      103
siesta:     40.81771  33.66588  18.89726  1      104
siesta:     38.48527  35.01252  18.89726  1      105
siesta:     38.48527  37.70579  18.89726  1      106
siesta:     40.81771  14.81299  18.89726  1      107
siesta:     22.15819  41.74569  18.89726  1      108
siesta:     24.49063   2.69327  18.89726  1      109
siesta:     19.82574  37.70579  18.89726  1      110
siesta:      8.16354   6.73318  18.89726  1      111
siesta:      8.16354   9.42645  18.89726  1      112
siesta:      5.83110  10.77308  18.89726  1      113
siesta:      5.83110  13.46635  18.89726  1      114
siesta:      8.16354  14.81299  18.89726  1      115
siesta:      8.16354  17.50626  18.89726  1      116
siesta:      5.83110  18.85289  18.89726  1      117
siesta:      5.83110  21.54616  18.89726  1      118
siesta:      8.16354  22.89280  18.89726  1      119
siesta:      8.16354  25.58607  18.89726  1      120
siesta:      5.83110  26.93270  18.89726  1      121
siesta:      5.83110  29.62597  18.89726  1      122
siesta:      8.16354  30.97261  18.89726  1      123
siesta:      8.16354  33.66588  18.89726  1      124
siesta:      5.83110  35.01252  18.89726  1      125
siesta:      5.83110  37.70579  18.89726  1      126
siesta:      8.16354  39.05242  18.89726  1      127
siesta:      8.16354  41.74569  18.89726  1      128
siesta:      5.83110  43.09233  18.89726  1      129
siesta:     22.15819  39.05242  18.89726  1      130
siesta:     12.82842  47.13223  18.89726  1      131
siesta:     12.82842   1.34664  18.89726  1      132
siesta:     10.49598   2.69327  18.89726  1      133
siesta:      5.83110   5.38654  18.89726  1      134
siesta:      5.83110   2.69327  18.89726  1      135
siesta:      8.16354   1.34664  18.89726  1      136
siesta:      8.16354  47.13223  18.89726  1      137
siesta:      3.49866  47.13223  18.89726  1      138
siesta:      3.49866   1.34664  18.89726  1      139
siesta:      1.16622   2.69327  18.89726  1      140
siesta:      1.16622   5.38654  18.89726  1      141
siesta:      3.49866   6.73318  18.89726  1      142
siesta:      3.49866   9.42645  18.89726  1      143
siesta:      1.16622  10.77308  18.89726  1      144
siesta:      1.16622  13.46635  18.89726  1      145
siesta:      3.49866  14.81299  18.89726  1      146
siesta:      3.49866  17.50626  18.89726  1      147
siesta:      1.16622  18.85289  18.89726  1      148
siesta:     10.49598   5.38654  18.89726  1      149
siesta:      1.16622  21.54616  18.89726  1      150
siesta:      3.49866  25.58607  18.89726  1      151
siesta:      1.16622  26.93270  18.89726  1      152
siesta:      1.16622  29.62597  18.89726  1      153
siesta:      3.49866  30.97261  18.89726  1      154
siesta:      3.49866  33.66588  18.89726  1      155
siesta:      1.16622  35.01252  18.89726  1      156
siesta:      1.16622  37.70579  18.89726  1      157
siesta:      3.49866  39.05242  18.89726  1      158
siesta:      3.49866  41.74569  18.89726  1      159
siesta:      1.16622  43.09233  18.89726  1      160
siesta:      5.83110  45.78560  18.89726  1      161
siesta:      3.49866  22.89280  18.89726  1      162
siesta:     12.82842   6.73318  18.89726  1      163
siesta:     10.49598  45.78560  18.89726  1      164
siesta:     10.49598  10.77308  18.89726  1      165
siesta:     15.16975  18.85445  18.89726  1      166
siesta:     15.14705  21.52507  18.89726  1      167
siesta:     15.14705  26.95380  18.89726  1      168
siesta:     12.82842   9.42645  18.89726  1      169
siesta:     17.46478  30.96915  18.89726  1      170
siesta:     17.49487  33.61352  18.89726  1      171
siesta:     15.16086  35.01252  18.89726  1      172
siesta:     15.16086  37.70579  18.89726  1      173
siesta:     17.49330  39.05242  18.89726  1      174
siesta:     17.49330  41.74569  18.89726  1      175
siesta:     15.16086  43.09233  18.89726  1      176
siesta:     19.82574  45.78560  18.89726  1      177
siesta:     22.15819  47.13223  18.89726  1      178
siesta:     22.15819   1.34664  18.89726  1      179
siesta:     19.82574   2.69327  18.89726  1      180
siesta:     19.82574   5.38654  18.89726  1      181
siesta:     22.15819   6.73318  18.89726  1      182
siesta:     22.15819   9.42645  18.89726  1      183
siesta:     19.82574  10.77308  18.89726  1      184
siesta:     19.87178  13.49790  18.89726  1      185
siesta:     22.17271  14.79359  18.89726  1      186
siesta:     22.17271  33.68528  18.89726  1      187
siesta:     19.87178  34.98097  18.89726  1      188
siesta:     17.46478  17.50972  18.89726  1      189
siesta:     17.49487  14.86535  18.89726  1      190
siesta:     15.16975  29.62442  18.89726  1      191
siesta:     15.16086  10.77308  18.89726  1      192
siesta:     10.49598  13.46635  18.89726  1      193
siesta:     12.82842  14.81299  18.89726  1      194
siesta:     12.82842  17.50626  18.89726  1      195
siesta:     10.49598  18.85289  18.89726  1      196
siesta:     10.49598  21.54616  18.89726  1      197
siesta:     15.16086  13.46635  18.89726  1      198
siesta:     12.88169  25.61361  18.89726  1      199
siesta:     10.49598  26.93270  18.89726  1      200
siesta:     10.49598  29.62597  18.89726  1      201
siesta:     12.82842  30.97261  18.89726  1      202
siesta:     12.82842  33.66588  18.89726  1      203
siesta:     12.88169  22.86526  18.89726  1      204
siesta:     10.49598  37.70579  18.89726  1      205
siesta:     10.49598  35.01252  18.89726  1      206
siesta:     17.49330   6.73318  18.89726  1      207
siesta:     15.16086   5.38654  18.89726  1      208
siesta:     15.16086   2.69327  18.89726  1      209
siesta:     17.49330   1.34664  18.89726  1      210
siesta:     17.49330   9.42645  18.89726  1      211
siesta:     15.16086  45.78560  18.89726  1      212
siesta:     10.49598  43.09233  18.89726  1      213
siesta:     12.82842  41.74569  18.89726  1      214
siesta:     12.82842  39.05242  18.89726  1      215
siesta:     17.49330  47.13223  18.89726  1      216
siesta:     29.75292  29.85660  18.89726  2      217
siesta:     29.75292  18.62227  18.89726  2      218
siesta:     26.72687  31.60156  18.89726  2      219
siesta:     26.72687  16.87730  18.89726  2      220
siesta:     22.25438  31.60156  18.89726  2      221
siesta:     19.22833  29.85660  18.89726  2      222
siesta:     16.99363  25.98467  18.89726  2      223
siesta:     16.99363  22.49420  18.89726  2      224
siesta:     19.22833  18.62227  18.89726  2      225
siesta:     31.98762  22.49420  18.89726  2      226
siesta:     22.25438  16.87730  18.89726  2      227
siesta:     31.98762  25.98467  18.89726  2      228
siesta:     22.62084  23.71797  27.49726  1      229
siesta:     22.88849  26.51419  28.36231  1      230
siesta:     25.14299  22.34267  27.92136  1      231
siesta:     21.87862  27.08090  25.03949  2      232
siesta:     21.12940  22.85909  28.71746  2      233
siesta:     24.95471  20.27404  27.57393  2      234
siesta:     26.62327  23.11696  26.63230  2      235
siesta:     25.77390  22.66630  29.90074  2      236
siesta:     23.05472  22.68372  23.62158  2      237
siesta:     20.02554  22.76628  24.54263  2      238
siesta:     21.76253  23.69736  24.73255  3      239
siesta:     22.32795  28.20483  26.52111  4      240
siesta:     23.56352  27.08532  30.49814  4      241

siesta: System type = slab      

initatomlists: Number of atoms, orbitals, and projectors:    241  2981  3723

siesta: ******************** Simulation parameters ****************************
siesta:
siesta: The following are some of the parameters of the simulation.
siesta: A complete list of the parameters used, including default values,
siesta: can be found in file out.fdf
siesta:
redata: Spin configuration                          = none
redata: Number of spin components                   = 1
redata: Time-Reversal Symmetry                      = T
redata: Spin spiral                                 = F
redata: Long output                                 =   F
redata: Number of Atomic Species                    =        4
redata: Charge density info will appear in .RHO file
redata: Write Mulliken charges (when)               = none
redata: Write Mulliken Pop.                         = NO
redata: Write Hirshfeld charges (when)              = none
redata: Write Voronoi charges (when)                = none
redata: Write spin charge (when)                    = none
redata: Matel table size (NRTAB)                    =     1024
redata: Mesh Cutoff                                 =   250.0000 Ry
redata: Net charge of the system                    =     0.0000 |e|
redata: Min. number of SCF Iter                     =        0
redata: Max. number of SCF Iter                     =     2000
redata: SCF convergence failure will abort job
redata: SCF mix quantity                            = Hamiltonian
redata: Mix DM or H after convergence               =   F
redata: Recompute H after scf cycle                 =   F
redata: Mix DM in first SCF step                    =   T
redata: Write Pulay info on disk                    =   F
redata: New DM Occupancy tolerance                  = 0.000000000001
redata: No kicks to SCF
redata: DM Mixing Weight for Kicks                  =     0.5000
redata: Require Harris convergence for SCF          =   F
redata: Harris energy tolerance for SCF             =     0.000100 eV
redata: Require DM convergence for SCF              =   T
redata: DM tolerance for SCF                        =     0.000010
redata: Require EDM convergence for SCF             =   F
redata: EDM tolerance for SCF                       =     0.001000 eV
redata: Require H convergence for SCF               =   T
redata: Hamiltonian tolerance for SCF               =     0.001000 eV
redata: Require (free) Energy convergence for SCF   =   F
redata: (free) Energy tolerance for SCF             =     0.000100 eV
redata: Using DFT-D3 dispersion                     =   F
redata: Using Saved Data (generic)                  =   F
redata: Use continuation files for DM               =   T
redata: Neglect nonoverlap interactions             =   F
redata: Method of Calculation                       = Diagonalization
redata: Electronic Temperature                      =   300.0000 K
redata: Fix the spin of the system                  =   F
redata: Max. number of TDED Iter                    =        1
redata: Number of TDED substeps                     =        3
redata: Dynamics option                             = Single-point calculation
mix.SCF: Pulay mixing                            = Pulay
mix.SCF:    Variant                              = stable
mix.SCF:    History steps                        = 20
mix.SCF:    Linear mixing weight                 =     0.010000
mix.SCF:    Mixing weight                        =     0.010000
mix.SCF:    SVD condition                        = 0.1000E-07
redata: Save all siesta data in one NC              =   F
redata: ***********************************************************************

%block SCF.Mixers
  Pulay
%endblock SCF.Mixers

%block SCF.Mixer.Pulay
  # Mixing method
  method pulay
  variant stable

  # Mixing options
  weight 0.0100
  weight.linear 0.0100
  history 20
%endblock SCF.Mixer.Pulay

DM_history_depth set to one: no extrapolation allowed by default for geometry relaxation
Size of DM history Fstack: 1
Total number of electrons:   912.000000
Total ionic charge:   912.000000

* ProcessorY, Blocksize:    8  46


* Orbital distribution balance (max,min):    83    46

 Kpoints in:            1 . Kpoints trimmed:            1

siesta: k-grid: Number of k-points = 1
siesta: k-points from Monkhorst-Pack grid
siesta: k-cutoff (effective) =    10.000 Ang
siesta: k-point supercell and displacements
siesta: k-grid:     1     0     0      0.000
siesta: k-grid:     0     1     0      0.000
siesta: k-grid:     0     0     1      0.000

diag: Algorithm                                     = D&C
diag: Parallel over k                               =   F
diag: Use parallel 2D distribution                  =   T
diag: Parallel block-size                           = 46
diag: Parallel distribution                         =     8 x     8
diag: Used triangular part                          = Lower
diag: Absolute tolerance                            =  0.100E-15
diag: Orthogonalization factor                      =  0.100E-05
diag: Memory factor                                 =  1.0000


ts: **************************************************************
ts: Save H and S matrices                           =    F
ts: Save DM and EDM matrices                        =    F
ts: Only save the overlap matrix S                  =    F
ts: **************************************************************

************************ Begin: TS CHECKS AND WARNINGS ************************
************************ End: TS CHECKS AND WARNINGS **************************


                     ====================================
                        Single-point calculation
                     ====================================

outcell: Unit cell vectors (Ang):
       24.685488    0.000000    0.000000
        0.000000   25.653912    0.000000
        0.000000    0.000000   20.000000

outcell: Cell vector modules (Ang)   :   24.685488   25.653912   20.000000
outcell: Cell angles (23,13,12) (deg):     90.0000     90.0000     90.0000
outcell: Cell volume (Ang**3)        :  12665.5865
<dSpData1D:S at geom step 0
  <sparsity:sparsity for geom step 0
    nrows_g=2981 nrows=83 sparsity=.0039 nnzs=34264, refcount: 7>
  <dData1D:(new from dSpData1D) n=34264, refcount: 1>
refcount: 1>
new_DM -- step:     1
Initializing Density Matrix...

Attempting to read DM from file... Failed...
DM filled with atomic data:
<dSpData2D:DM initialized from atoms
  <sparsity:sparsity for geom step 0
    nrows_g=2981 nrows=83 sparsity=.0039 nnzs=34264, refcount: 8>
  <dData2D:DM n=34264 m=1, refcount: 1>
refcount: 1>
No. of atoms with KB's overlaping orbs in proc 0. Max # of overlaps:      60     221

InitMesh: MESH = 240 x 250 x 192 = 11520000
InitMesh: Mesh cutoff (required, used) =   250.000   254.709 Ry
New grid distribution [1]: sub = 2
New grid distribution [2]: sub = 2
New grid distribution [3]: sub = 2
Setting up quadratic distribution...

stepf: Fermi-Dirac step function

siesta: Program's energy decomposition (eV):
siesta: Ebs     =    -11081.791428
siesta: Eions   =     55608.971781
siesta: Ena     =     10755.826893
siesta: Ekin    =     26343.679266
siesta: Enl     =     -4486.489006
siesta: Eso     =         0.000000
siesta: Edftu   =         0.000000
siesta: DEna    =     -1334.078011
siesta: DUscf   =       128.885939
siesta: DUext   =         0.000000
siesta: Ex      =    -10214.677633
siesta: Ec      =     -1237.355127
siesta: Exc     =    -11452.032760
siesta: EbV     =         0.000000
siesta: eta*DQ  =         0.000000
siesta: Emadel  =         0.000000
siesta: Emeta   =         0.000000
siesta: Emolmec =         0.000000
siesta: Ekinion =         0.000000
siesta: Eharris =    -35487.722902
siesta: Etot    =    -35653.179460
siesta: FreeEng =    -35653.179607

        iscf     Eharris(eV)        E_KS(eV)     FreeEng(eV)     dDmax    Ef(eV) dHmax(eV)
   scf:    1   -35487.722902   -35653.179460   -35653.179607  1.940963 -6.126821  8.799525
timer: Routine,Calls,Time,% = IterSCF        1       4.992  16.18
   scf:    2   -35654.775712   -35653.979561   -35653.979708  0.003812 -6.097536  8.562300
   scf:    3   -35677.432224   -35673.154907   -35673.155060  0.207200 -4.406836  6.897529
   scf:    4   -35676.187639   -35674.811407   -35674.811550  0.049685 -4.499019  4.487434
   scf:    5   -35677.558979   -35676.504977   -35676.505121  0.067259 -4.248902  2.174375
   scf:    6   -35677.428056   -35677.060306   -35677.060452  0.034894 -4.278798  0.646226
   scf:    7   -35677.175233   -35677.121387   -35677.121532  0.004122 -4.269833  0.500342
   scf:    8   -35677.234128   -35677.202425   -35677.202565  0.015227 -4.297401  0.237548
   scf:    9   -35677.233452   -35677.221213   -35677.221355  0.005216 -4.257689  0.132269
   scf:   10   -35677.215583   -35677.220944   -35677.221085  0.007941 -4.294797  0.167253
   scf:   11   -35677.236161   -35677.230565   -35677.230705  0.004245 -4.252924  0.116640
   scf:   12   -35677.229300   -35677.230756   -35677.230897  0.002658 -4.288519  0.078981
   scf:   13   -35677.228293   -35677.230683   -35677.230824  0.002929 -4.257099  0.067963
   scf:   14   -35677.233725   -35677.232593   -35677.232734  0.001740 -4.281155  0.027137
   scf:   15   -35677.232624   -35677.232635   -35677.232776  0.000560 -4.283615  0.021399
   scf:   16   -35677.232640   -35677.232638   -35677.232778  0.000023 -4.283565  0.020717
   scf:   17   -35677.232734   -35677.232692   -35677.232833  0.000324 -4.286478  0.007919
mix: Pulay -- inversion failed, > SVD [rank/size] 10 / 16
   scf:   18   -35677.232699   -35677.232698   -35677.232839  0.000170 -4.287772  0.004274
mix: Pulay -- inversion failed, > SVD [rank/size] 10 / 17
   scf:   19   -35677.232698   -35677.232698   -35677.232839  0.000004 -4.287809  0.004279
mix: Pulay -- inversion failed, > SVD [rank/size] 10 / 18
   scf:   20   -35677.232698   -35677.232698   -35677.232839  0.000003 -4.287819  0.004159
mix: Pulay -- inversion failed, > SVD [rank/size] 10 / 19
   scf:   21   -35677.232698   -35677.232698   -35677.232839  0.000003 -4.287828  0.004039
mix: Pulay -- inversion failed, > SVD [rank/size] 10 / 19
   scf:   22   -35677.232698   -35677.232698   -35677.232839  0.000003 -4.287836  0.003925
mix: Pulay -- inversion failed, > SVD [rank/size] 11 / 19
   scf:   23   -35677.232697   -35677.232698   -35677.232839  0.000012 -4.287945  0.004001
mix: Pulay -- inversion failed, > SVD [rank/size] 11 / 19
   scf:   24   -35677.232698   -35677.232698   -35677.232839  0.000009 -4.287938  0.003551
mix: Pulay -- inversion failed, > SVD [rank/size] 11 / 19
   scf:   25   -35677.232702   -35677.232700   -35677.232841  0.000076 -4.288082  0.000793
mix: Pulay -- inversion failed, > SVD [rank/size] 10 / 19
   scf:   26   -35677.232700   -35677.232700   -35677.232841  0.000004 -4.288094  0.000788

SCF Convergence by DM+H criterion
max |DM_out - DM_in|         :     0.0000035903
max |H_out - H_in|      (eV) :     0.0007875757
SCF cycle converged after 26 iterations

Using DM_out to compute the final energy and forces
No. of atoms with KB's overlaping orbs in proc 0. Max # of overlaps:      60     221

siesta: E_KS(eV) =           -35677.2327

siesta: E_KS - E_eggbox =    -35677.2327

siesta: Atomic forces (eV/Ang):
----------------------------------------
   Tot   -0.000803    0.002871    0.001742
----------------------------------------
   Max    0.446205
   Res    0.092313    sqrt( Sum f_i^2 / 3N )
----------------------------------------
   Max    0.446205    constrained

Stress tensor Voigt[x,y,z,yz,xz,xy] (kbar):      -17.67      -19.64        0.08        0.01        0.02        0.00
(Free)E + p*V (eV/cell)   -35579.1397
Target enthalpy (eV/cell)   -35677.2328

siesta: Program's energy decomposition (eV):
siesta: Ebs     =    -12166.149464
siesta: Eions   =     55608.971781
siesta: Ena     =     10755.826893
siesta: Ekin    =     25544.329479
siesta: Enl     =     -4239.134875
siesta: Eso     =         0.000000
siesta: Edftu   =         0.000000
siesta: DEna    =      -902.214657
siesta: DUscf   =        76.340322
siesta: DUext   =         0.000000
siesta: Ex      =    -10069.229932
siesta: Ec      =     -1234.178150
siesta: Exc     =    -11303.408081
siesta: EbV     =         0.000000
siesta: eta*DQ  =         0.000000
siesta: Emadel  =         0.000000
siesta: Emeta   =         0.000000
siesta: Emolmec =         0.000000
siesta: Ekinion =         0.000000
siesta: Eharris =    -35677.232700
siesta: Etot    =    -35677.232700
siesta: FreeEng =    -35677.232841

siesta: Final energy (eV):
siesta:  Band Struct. =  -12166.149464
siesta:       Kinetic =   25544.329479
siesta:       Hartree =  164614.691623
siesta:         Edftu =       0.000000
siesta:       Eso     =       0.000000
siesta:    Ext. field =       0.000000
siesta:         Exch. =  -10069.229932
siesta:         Corr. =   -1234.178150
siesta:     Bulk bias =       0.000000
siesta:   Exch.-corr. =  -11303.408081
siesta:  Ion-electron = -352588.719773
siesta:       Ion-ion =  138055.874052
siesta:       Ekinion =       0.000000
siesta: D3 dispersion =       0.000000
siesta:         Total =  -35677.232700
siesta:         Fermi =      -4.288094

siesta: Atomic forces (eV/Ang):
siesta:      1    0.000078    0.118663    0.000001
siesta:      2    0.002622    0.004859    0.000368
siesta:      3   -0.004010   -0.004658   -0.000092
siesta:      4   -0.203009   -0.244557    0.000370
siesta:      5   -0.144685   -0.105682   -0.000020
siesta:      6    0.025461    0.010829   -0.000011
siesta:      7   -0.100217   -0.093518    0.000014
siesta:      8    0.012222    0.118682    0.000002
siesta:      9   -0.035699   -0.076053   -0.000002
siesta:     10   -0.035578    0.075194    0.000004
siesta:     11    0.011246   -0.118714    0.000006
siesta:     12    0.018100    0.117008    0.000007
siesta:     13   -0.020509   -0.109296    0.000001
siesta:     14   -0.163158    0.125618    0.000027
siesta:     15    0.110609   -0.035947   -0.000019
siesta:     16   -0.134684    0.440491   -0.000227
siesta:     17   -0.197610    0.040966    0.000017
siesta:     18    0.230931   -0.133471   -0.000408
siesta:     19   -0.003739    0.003492    0.000373
siesta:     20   -0.001268   -0.007402    0.002904
siesta:     21   -0.004535    0.000422    0.000639
siesta:     22    0.000410    0.004622    0.000255
siesta:     23   -0.000651    0.005256    0.001172
siesta:     24   -0.002415    0.009093    0.000236
siesta:     25    0.002840   -0.001129   -0.000664
siesta:     26    0.231904    0.129386    0.000043
siesta:     27    0.009441   -0.005181    0.004520
siesta:     28    0.005843    0.006903    0.001326
siesta:     29    0.000044    0.112270   -0.000013
siesta:     30    0.002356   -0.104562    0.000010
siesta:     31    0.003199    0.104172   -0.000000
siesta:     32    0.000233    0.118397   -0.000018
siesta:     33    0.028779   -0.235039    0.000164
siesta:     34    0.014042    0.238080   -0.000001
siesta:     35   -0.001394   -0.282971   -0.001280
siesta:     36    0.004325    0.016345    0.001044
siesta:     37    0.001637   -0.014451    0.007210
siesta:     38    0.004544    0.003143   -0.002106
siesta:     39   -0.000120   -0.001314    0.002080
siesta:     40   -0.000470    0.280156    0.000126
siesta:     41    0.011789   -0.238597    0.000144
siesta:     42    0.030967    0.233316   -0.000034
siesta:     43    0.000044   -0.116989    0.000035
siesta:     44   -0.014126    0.096005    0.000010
siesta:     45    0.004114   -0.085679   -0.000001
siesta:     46    0.004447    0.085547   -0.000001
siesta:     47   -0.013908   -0.096939    0.000003
siesta:     48   -0.098941    0.092584   -0.000002
siesta:     49    0.025754   -0.010115    0.000010
siesta:     50   -0.141591    0.105193   -0.000020
siesta:     51   -0.199923    0.243877   -0.000403
siesta:     52    0.004843   -0.005531    0.000773
siesta:     53   -0.197380   -0.039629    0.000064
siesta:     54   -0.132835   -0.445312    0.000029
siesta:     55    0.111764    0.037663    0.000031
siesta:     56    0.022556   -0.077618   -0.000001
siesta:     57    0.022219    0.077128    0.000002
siesta:     58   -0.021684   -0.076546   -0.000001
siesta:     59   -0.065164    0.074665    0.000003
siesta:     60    0.041511   -0.041161   -0.000001
siesta:     61    0.053590    0.039938    0.000000
siesta:     62   -0.055261   -0.044452    0.000001
siesta:     63   -0.013147    0.038099   -0.000010
siesta:     64    0.032436   -0.064539   -0.000003
siesta:     65    0.118213    0.058151    0.000001
siesta:     66   -0.173160   -0.165280    0.000005
siesta:     67   -0.193870    0.145834    0.000004
siesta:     68    0.116329   -0.053184    0.000006
siesta:     69    0.114396    0.052628   -0.000000
siesta:     70   -0.195808   -0.147694    0.000015
siesta:     71   -0.171195    0.166788   -0.000003
siesta:     72    0.119356   -0.060803   -0.000001
siesta:     73    0.030644    0.065635    0.000000
siesta:     74   -0.013286   -0.040087   -0.000001
siesta:     75   -0.054550    0.045202    0.000004
siesta:     76    0.053874   -0.041323   -0.000003
siesta:     77    0.040737    0.041958    0.000002
siesta:     78   -0.065087   -0.075891   -0.000002
siesta:     79   -0.021431    0.076462    0.000002
siesta:     80   -0.007021   -0.071883   -0.000004
siesta:     81    0.037039    0.125700    0.000003
siesta:     82    0.018521   -0.121225   -0.000003
siesta:     83   -0.162952   -0.127303   -0.000016
siesta:     84   -0.020432    0.109300    0.000011
siesta:     85    0.017539   -0.118340   -0.000004
siesta:     86    0.025809    0.069878    0.000002
siesta:     87    0.000476   -0.114609   -0.000002
siesta:     88    0.000696    0.114455    0.000001
siesta:     89    0.026304   -0.069656   -0.000001
siesta:     90   -0.006985    0.071081    0.000005
siesta:     91    0.036825   -0.124268   -0.000002
siesta:     92    0.018606    0.119939   -0.000001
siesta:     93    0.078327    0.046709   -0.000005
siesta:     94    0.100203   -0.093511    0.000030
siesta:     95    0.202998   -0.057337    0.000092
siesta:     96    0.224862    0.103484    0.000064
siesta:     97   -0.117117    0.072376    0.000015
siesta:     98   -0.239278    0.004352   -0.000209
siesta:     99   -0.089356   -0.426473   -0.000010
siesta:    100   -0.089102    0.431778   -0.000020
siesta:    101   -0.238305   -0.007733   -0.000043
siesta:    102   -0.120366   -0.070848    0.000034
siesta:    103    0.226093   -0.104861    0.000032
siesta:    104   -0.047752    0.145871    0.000004
siesta:    105    0.202559    0.055286   -0.000013
siesta:    106    0.076757   -0.045622    0.000016
siesta:    107   -0.047593   -0.142433   -0.000007
siesta:    108   -0.031192    0.233052    0.000002
siesta:    109    0.000080   -0.112594   -0.000028
siesta:    110    0.202549   -0.245381    0.000208
siesta:    111   -0.036196   -0.125015   -0.000013
siesta:    112   -0.018192    0.119708   -0.000024
siesta:    113    0.055712   -0.044401    0.000009
siesta:    114    0.011564    0.038186   -0.000101
siesta:    115    0.049758   -0.141853   -0.000078
siesta:    116   -0.225423    0.101052    0.000684
siesta:    117    0.173052   -0.165075   -0.000028
siesta:    118    0.193572    0.146856    0.000083
siesta:    119    0.089503   -0.422949   -0.000265
siesta:    120    0.089658    0.432058   -0.000088
siesta:    121    0.195292   -0.148823    0.000023
siesta:    122    0.171057    0.167433   -0.000017
siesta:    123   -0.226823   -0.104213    0.000246
siesta:    124    0.048832    0.145973   -0.000013
siesta:    125    0.012676   -0.040391   -0.000042
siesta:    126    0.054600    0.045517    0.000013
siesta:    127   -0.018418   -0.121320   -0.000019
siesta:    128   -0.036767    0.125838    0.000001
siesta:    129    0.064963   -0.076135   -0.000003
siesta:    130   -0.011979   -0.238501    0.000288
siesta:    131    0.035497   -0.076344   -0.000000
siesta:    132    0.035375    0.075583    0.000003
siesta:    133   -0.026186   -0.069788    0.000001
siesta:    134    0.064882    0.075158    0.000002
siesta:    135    0.021560   -0.076706    0.000002
siesta:    136   -0.000495    0.114526   -0.000001
siesta:    137   -0.000261   -0.114780   -0.000004
siesta:    138   -0.022588   -0.077584   -0.000002
siesta:    139   -0.022483    0.077039    0.000002
siesta:    140    0.000103   -0.117986   -0.000002
siesta:    141    0.000245    0.113822    0.000001
siesta:    142   -0.041305   -0.041379   -0.000002
siesta:    143   -0.054748    0.039745    0.000017
siesta:    144    0.000656   -0.130469   -0.000007
siesta:    145   -0.000104    0.121312    0.000023
siesta:    146   -0.031470   -0.064354    0.000014
siesta:    147   -0.119526    0.057510   -0.000054
siesta:    148    0.000276   -0.269743   -0.000005
siesta:    149    0.006210    0.071572    0.000021
siesta:    150    0.000463    0.268060    0.000026
siesta:    151   -0.114337    0.052423    0.000003
siesta:    152    0.000180   -0.266591    0.000018
siesta:    153    0.000226    0.274805   -0.000008
siesta:    154   -0.119986   -0.060585   -0.000002
siesta:    155   -0.030090    0.065348    0.000007
siesta:    156   -0.000173   -0.122520    0.000009
siesta:    157    0.000300    0.132806    0.000000
siesta:    158   -0.054155   -0.041283    0.000003
siesta:    159   -0.040755    0.041856    0.000002
siesta:    160    0.000082   -0.114519   -0.000002
siesta:    161    0.021227    0.076659    0.000004
siesta:    162   -0.117175   -0.052552    0.000065
siesta:    163    0.020133   -0.109956    0.000033
siesta:    164   -0.025896    0.069867    0.000003
siesta:    165   -0.077737    0.045926    0.000003
siesta:    166    0.014792    0.004941    0.005456
siesta:    167   -0.003887   -0.014161    0.027402
siesta:    168   -0.001008    0.005224    0.006332
siesta:    169    0.162941    0.126667    0.000012
siesta:    170   -0.004046   -0.000887    0.006549
siesta:    171   -0.000050    0.005504    0.002857
siesta:    172    0.133503   -0.446205   -0.000391
siesta:    173   -0.111322    0.037870   -0.000077
siesta:    174    0.145388   -0.106140   -0.000025
siesta:    175   -0.025329    0.010525   -0.000008
siesta:    176   -0.017337   -0.118638    0.000004
siesta:    177    0.013939    0.095969   -0.000011
siesta:    178   -0.002435   -0.104709    0.000015
siesta:    179   -0.003043    0.104197    0.000001
siesta:    180    0.013497   -0.096952   -0.000013
siesta:    181    0.099019    0.092607   -0.000011
siesta:    182   -0.029323   -0.235620    0.000255
siesta:    183   -0.012625    0.238099    0.000030
siesta:    184    0.197488    0.243253   -0.000606
siesta:    185   -0.006477    0.005712    0.002089
siesta:    186   -0.002682   -0.020047    0.010131
siesta:    187   -0.006316    0.004930   -0.000375
siesta:    188    0.004792   -0.005282    0.001275
siesta:    189   -0.019480   -0.008604    0.019735
siesta:    190    0.003224   -0.012847    0.004112
siesta:    191    0.008800    0.010202    0.003754
siesta:    192   -0.108258   -0.038659   -0.000249
siesta:    193   -0.205237   -0.057143    0.000543
siesta:    194    0.197871    0.040456    0.000059
siesta:    195   -0.235506   -0.135226   -0.003377
siesta:    196    0.118621    0.072857    0.000119
siesta:    197    0.237792    0.006473   -0.001802
siesta:    198    0.136242    0.439827   -0.001103
siesta:    199   -0.003979    0.007846    0.002862
siesta:    200    0.235455   -0.010183   -0.000050
siesta:    201    0.122140   -0.070770    0.000109
siesta:    202   -0.233471    0.128100   -0.001152
siesta:    203    0.197379   -0.038656    0.000317
siesta:    204    0.000074    0.011428    0.006357
siesta:    205   -0.076402   -0.045640    0.000031
siesta:    206   -0.202750    0.054849    0.000157
siesta:    207   -0.025567   -0.010311    0.000034
siesta:    208   -0.017725    0.117298   -0.000001
siesta:    209   -0.010851   -0.119307    0.000014
siesta:    210   -0.004509    0.085617   -0.000003
siesta:    211    0.141327    0.105982   -0.000049
siesta:    212   -0.012046    0.118769    0.000006
siesta:    213    0.007023   -0.072052    0.000004
siesta:    214    0.020118    0.109503    0.000034
siesta:    215    0.162807   -0.127936   -0.000020
siesta:    216   -0.003833   -0.085733    0.000004
siesta:    217   -0.002903   -0.001515    0.002052
siesta:    218   -0.003861    0.006196   -0.003638
siesta:    219   -0.002803   -0.000731    0.004802
siesta:    220    0.000927    0.008965   -0.004215
siesta:    221    0.003274   -0.004625    0.008150
siesta:    222    0.010645   -0.009613    0.005331
siesta:    223    0.019705   -0.000759    0.013092
siesta:    224    0.017548    0.016049   -0.015006
siesta:    225    0.017714    0.013361   -0.010369
siesta:    226    0.001697    0.003515   -0.001954
siesta:    227    0.002847    0.014103   -0.005064
siesta:    228    0.001264    0.000152   -0.000962
siesta:    229    0.011249    0.016162    0.052695
siesta:    230    0.017074   -0.012148    0.046610
siesta:    231   -0.015029   -0.012722   -0.009676
siesta:    232   -0.022330    0.030743    0.014544
siesta:    233   -0.001575    0.001043   -0.016683
siesta:    234   -0.000817   -0.001308    0.001012
siesta:    235    0.019657    0.005217   -0.004067
siesta:    236    0.000390   -0.002159   -0.001187
siesta:    237    0.017130   -0.034414    0.000531
siesta:    238   -0.053737   -0.038657   -0.008006
siesta:    239   -0.024095    0.021167   -0.085775
siesta:    240   -0.000650    0.023691   -0.051218
siesta:    241   -0.010390   -0.011251   -0.040284
siesta: ----------------------------------------
siesta:    Tot   -0.000803    0.002871    0.001742

siesta: Stress tensor (static) (eV/Ang**3):
siesta:    -0.011026    0.000002    0.000015
siesta:     0.000002   -0.012261    0.000005
siesta:     0.000015    0.000005    0.000052

siesta: Cell volume =      12665.586541 Ang**3

siesta: Pressure (static):
siesta:                Solid            Molecule  Units
siesta:           0.00008435          0.00009445  Ry/Bohr**3
siesta:           0.00774485          0.00867174  eV/Ang**3
siesta:          12.40862257         13.89366492  kBar
(Free)E+ p_basis*V_orbitals  =      -35578.101541
(Free)Eharris+ p_basis*V_orbitals  =      -35578.101541

siesta: Electric dipole (a.u.)  =    0.000000    0.000000   -1.062493
siesta: Electric dipole (Debye) =    0.000000    0.000000   -2.700587

cite: Please indicate the Siesta version in published work: unreleased 21e88d34b (2025-02-04)
cite: This calculation has made use of features in the following articles
cite: which we encourage you to cite in published work.
cite: (Please see "siesta.bib" for a BibTeX file.)
        Primary SIESTA paper
          DOI: www.doi.org/10.1088/0953-8984/14/11/302


>> End of run:  22-DEC-2025  14:53:42
Job completed
