Executable      : /opt/software/pc2/Siesta/5.2.2/siesta-5.2.2-mpi/build/Src/siesta
Version         : unreleased 21e88d34b (2025-02-04)
Architecture    : x86_64
Compiler version: GNU-13.2.0
Compiler flags  : -O3 -march=native -lscalapack -fallow-argument-mismatch -O3 -march=native
Parallelisations: MPI
NetCDF support
NetCDF-4 support
NetCDF-4 MPI-IO support
Lua support
Native ELPA support
ELSI support. Solvers:
   ELPA (external) 
   NTPoly
   OMM
DFT-D3 support

Runtime information:
* Directory : /scratch/hpc-prf-meop/Projects/2DMaterNanopore/DFT+NEGF+ML/DFT/OPTIC/GRAPHENE_NANOPORE_BIOMOL_ALA/OPTIC_THETA_150_PHI_060_PSI_000
* Running on 32 nodes in parallel.
>> Start of run:  13-JAN-2026   0:36:37

                           *********************** 
                           *  WELCOME TO SIESTA  * 
                           *********************** 

 NOTE: Siesta V5 introduces some new defaults for basis-set generation
 NOTE: which might lead to slightly different numerical results.
 NOTE: Please see the manual for full details and compatibility measures.


reinit: Reading from standard input
reinit: Dumping input in INPUT_TMP.01861
************************** Dump of input data file ****************************
SystemLabel	siesta
NumberOfSpecies	4
NumberOfAtoms	241
%block ChemicalSpecieslabel
    1 6 C
    2 1 H
    3 7 N
    4 8 O
%endblock ChemicalSpecieslabel
LatticeConstant	1.0 Ang
%block LatticeVectors
    24.685487983260018     0.000000000000000     0.000000000000000
    0.000000000000000     25.653911637872664     0.000000000000000
    0.000000000000000     0.000000000000000     19.999999987438091
%endblock LatticeVectors
AtomicCoordinatesFormat  Ang
%block AtomicCoordinatesAndAtomicSpecies
     0.617137199     24.228694325      9.999999993 1
    16.661877175     17.787507251      9.999999999 1
    15.404068592     18.511132114      9.999999994 1
    15.428429989     19.953042385      9.999999993 1
    16.662704388     20.665651042      9.999999993 1
    16.662704388     22.090868355      9.999999993 1
    15.428429989     22.803477011      9.999999993 1
    17.896978787     24.228694325      9.999999993 1
    19.131253187     24.941302981      9.999999993 1
    19.131253187      0.712608657      9.999999993 1
    17.896978787      1.425217313      9.999999993 1
    17.896978787      2.850434626      9.999999993 1
    19.131253187      3.563043283      9.999999993 1
    19.131253187      4.988260596      9.999999993 1
    17.896978787      5.700869253      9.999999993 1
    17.896978787      7.126086567      9.999999993 1
    19.131253187      7.838695223      9.999999993 1
    19.131253187      9.263912536      9.999999993 1
    17.892274080      9.977343270     10.000000008 1
    17.904289481     11.390574713      9.999999998 1
    19.103064970     12.099774496      9.999999989 1
    19.103064968     13.554137138      9.999999988 1
    17.904289479     14.263336921      9.999999996 1
    17.892274081     15.676568367     10.000000006 1
    16.677796396     16.388168018     10.000000006 1
    19.131253187     16.389999102      9.999999993 1
    16.677796396      9.265743615     10.000000009 1
    15.404068591      7.142779522      9.999999986 1
    12.959881192     24.228694325      9.999999993 1
    14.194155590     24.941302981      9.999999993 1
    14.194155590      0.712608657      9.999999993 1
    12.959881192      2.850434626      9.999999993 1
    14.194155590      3.563043283      9.999999993 1
    14.194155590      4.988260596      9.999999993 1
    12.959881192      5.700869253      9.999999993 1
    12.959881187      7.133036192      9.999999994 1
    14.186467353      7.828429446      9.999999983 1
    14.186467358     17.825482185      9.999999998 1
    12.959881191     18.520875446      9.999999986 1
    12.959881192     19.953042385      9.999999993 1
    14.194155590     20.665651042      9.999999993 1
    14.194155590     22.090868355      9.999999993 1
    12.959881192     22.803477011      9.999999993 1
    15.428429989     24.228694325      9.999999993 1
    16.662704388     24.941302981      9.999999993 1
    16.662704388      0.712608657      9.999999993 1
    15.428429989      1.425217313      9.999999993 1
    15.428429989      2.850434626      9.999999993 1
    16.662704388      3.563043283      9.999999993 1
    16.662704388      4.988260596      9.999999993 1
    15.428429989      5.700869253      9.999999993 1
    16.661877175      7.866404380      9.999999988 1
    19.131253187     17.815216416      9.999999993 1
    17.896978787     18.527825072      9.999999993 1
    17.896978787     19.953042385      9.999999993 1
    24.068350784     24.941302981      9.999999993 1
    24.068350784      0.712608657      9.999999993 1
    22.834076384      1.425217313      9.999999993 1
    22.834076384      2.850434626      9.999999993 1
    24.068350784      3.563043283      9.999999993 1
    24.068350784      4.988260596      9.999999993 1
    22.834076384      5.700869253      9.999999993 1
    22.834076384      7.126086567      9.999999993 1
    24.068350784      7.838695223      9.999999993 1
    24.068350784      9.263912536      9.999999993 1
    22.834076384      9.976521193      9.999999993 1
    22.834076384     11.401738506      9.999999993 1
    24.068350784     12.114347162      9.999999993 1
    24.068350784     13.539564475      9.999999993 1
    22.834076384     14.252173132      9.999999993 1
    22.834076384     15.677390445      9.999999993 1
    24.068350784     16.389999102      9.999999993 1
    24.068350784     17.815216416      9.999999993 1
    22.834076384     18.527825072      9.999999993 1
    22.834076384     19.953042385      9.999999993 1
    24.068350784     20.665651042      9.999999993 1
    24.068350784     22.090868355      9.999999993 1
    22.834076384     22.803477011      9.999999993 1
    22.834076384     24.228694325      9.999999993 1
    20.365527586     22.803477011      9.999999993 1
    21.599801985     22.090868355      9.999999993 1
    21.599801985     20.665651042      9.999999993 1
    19.131253187     20.665651042      9.999999993 1
    19.131253187     22.090868355      9.999999993 1
    17.896978787     22.803477011      9.999999993 1
    20.365527586     24.228694325      9.999999993 1
    21.599801985     24.941302981      9.999999993 1
    21.599801985      0.712608657      9.999999993 1
    20.365527586      1.425217313      9.999999993 1
    20.365527586      2.850434626      9.999999993 1
    21.599801985      3.563043283      9.999999993 1
    21.599801985      4.988260596      9.999999993 1
    20.365527586      5.700869253      9.999999993 1
    10.491332393     22.803477011      9.999999993 1
    20.365527586      7.126086567      9.999999993 1
    21.599801985      9.263912536      9.999999993 1
    20.365527586      9.976521193      9.999999993 1
    20.365527586     11.401738506      9.999999993 1
    21.599801985     12.114347162      9.999999993 1
    21.599801985     13.539564475      9.999999993 1
    20.365527586     14.252173132      9.999999993 1
    20.365527586     15.677390445      9.999999993 1
    21.599801985     16.389999102      9.999999993 1
    21.599801985     17.815216416      9.999999993 1
    20.365527586     18.527825072      9.999999993 1
    20.365527586     19.953042385      9.999999993 1
    21.599801985      7.838695223      9.999999993 1
    11.725606792     22.090868355      9.999999993 1
    12.959881192      1.425217313      9.999999993 1
    10.491332393     19.953042385      9.999999993 1
     4.319960397      3.563043283      9.999999993 1
     4.319960397      4.988260596      9.999999993 1
     3.085685998      5.700869253      9.999999993 1
     3.085685998      7.126086567      9.999999993 1
     4.319960397      7.838695223      9.999999993 1
     4.319960397      9.263912536      9.999999993 1
     3.085685998      9.976521193      9.999999993 1
     3.085685998     11.401738506      9.999999993 1
     4.319960397     12.114347162      9.999999993 1
     4.319960397     13.539564475      9.999999993 1
     3.085685998     14.252173132      9.999999993 1
     3.085685998     15.677390445      9.999999993 1
     4.319960397     16.389999102      9.999999993 1
     4.319960397     17.815216416      9.999999993 1
     3.085685998     18.527825072      9.999999993 1
     3.085685998     19.953042385      9.999999993 1
     4.319960397     20.665651042      9.999999993 1
     4.319960397     22.090868355      9.999999993 1
     3.085685998     22.803477011      9.999999993 1
    11.725606792     20.665651042      9.999999993 1
     6.788509196     24.941302981      9.999999993 1
     6.788509196      0.712608657      9.999999993 1
     5.554234797      1.425217313      9.999999993 1
     3.085685998      2.850434626      9.999999993 1
     3.085685998      1.425217313      9.999999993 1
     4.319960397      0.712608657      9.999999993 1
     4.319960397     24.941302981      9.999999993 1
     1.851411599     24.941302981      9.999999993 1
     1.851411599      0.712608657      9.999999993 1
     0.617137199      1.425217313      9.999999993 1
     0.617137199      2.850434626      9.999999993 1
     1.851411599      3.563043283      9.999999993 1
     1.851411599      4.988260596      9.999999993 1
     0.617137199      5.700869253      9.999999993 1
     0.617137199      7.126086567      9.999999993 1
     1.851411599      7.838695223      9.999999993 1
     1.851411599      9.263912536      9.999999993 1
     0.617137199      9.976521193      9.999999993 1
     5.554234797      2.850434626      9.999999993 1
     0.617137199     11.401738506      9.999999993 1
     1.851411599     13.539564475      9.999999993 1
     0.617137199     14.252173132      9.999999993 1
     0.617137199     15.677390445      9.999999993 1
     1.851411599     16.389999102      9.999999993 1
     1.851411599     17.815216416      9.999999993 1
     0.617137199     18.527825072      9.999999993 1
     0.617137199     19.953042385      9.999999993 1
     1.851411599     20.665651042      9.999999993 1
     1.851411599     22.090868355      9.999999993 1
     0.617137199     22.803477011      9.999999993 1
     3.085685998     24.228694325      9.999999993 1
     1.851411599     12.114347162      9.999999993 1
     6.788509196      3.563043283      9.999999993 1
     5.554234797     24.228694325      9.999999993 1
     5.554234797      5.700869253      9.999999993 1
     8.027488304      9.977343270      9.999999986 1
     8.015472905     11.390574713     10.000000004 1
     8.015472907     14.263336922     10.000000000 1
     6.788509196      4.988260596      9.999999993 1
     9.241965996     16.388168021     10.000000023 1
     9.257885205     17.787507251     10.000000006 1
     8.022783595     18.527825072      9.999999993 1
     8.022783595     19.953042385      9.999999993 1
     9.257057994     20.665651042      9.999999993 1
     9.257057994     22.090868355      9.999999993 1
     8.022783595     22.803477011      9.999999993 1
    10.491332393     24.228694325      9.999999993 1
    11.725606792     24.941302981      9.999999993 1
    11.725606792      0.712608657      9.999999993 1
    10.491332393      1.425217313      9.999999993 1
    10.491332393      2.850434626      9.999999993 1
    11.725606792      3.563043283      9.999999993 1
    11.725606792      4.988260596      9.999999993 1
    10.491332393      5.700869253      9.999999993 1
    10.515693795      7.142779522     10.000000027 1
    11.733295023      7.828429455     10.000000025 1
    11.733295023     17.825482186      9.999999992 1
    10.515693793     18.511132117      9.999999999 1
     9.241965990      9.265743609      9.999999987 1
     9.257885209      7.866404384     10.000000000 1
     8.027488313     15.676568366     10.000000023 1
     8.022783595      5.700869253      9.999999993 1
     5.554234797      7.126086567      9.999999993 1
     6.788509196      7.838695223      9.999999993 1
     6.788509196      9.263912536      9.999999993 1
     5.554234797      9.976521193      9.999999993 1
     5.554234797     11.401738506      9.999999993 1
     8.022783595      7.126086567      9.999999993 1
     6.816697412     13.554137139      9.999999981 1
     5.554234797     14.252173132      9.999999993 1
     5.554234797     15.677390445      9.999999993 1
     6.788509196     16.389999102      9.999999993 1
     6.788509196     17.815216416      9.999999993 1
     6.816697409     12.099774496      9.999999990 1
     5.554234797     19.953042385      9.999999993 1
     5.554234797     18.527825072      9.999999993 1
     9.257057994      3.563043283      9.999999993 1
     8.022783595      2.850434626      9.999999993 1
     8.022783595      1.425217313      9.999999993 1
     9.257057994      0.712608657      9.999999993 1
     9.257057994      4.988260596      9.999999993 1
     8.022783595     24.228694325      9.999999993 1
     5.554234797     22.803477011      9.999999993 1
     6.788509196     22.090868355      9.999999993 1
     6.788509196     20.665651042      9.999999993 1
     9.257057994     24.941302981      9.999999993 1
    15.744565851     15.799432360     10.000000001 2
    15.744565859      9.854479278      9.999999998 2
    14.143251523     16.722826843     10.000000023 2
    14.143251522      8.931084792      9.999999981 2
    11.776510846     16.722826837      9.999999998 2
    10.175196553     15.799432385     10.000000005 2
     8.992643581     13.750494156      9.999999994 2
     8.992643579     11.903417481      9.999999987 2
    10.175196533      9.854479269      9.999999992 2
    16.927118815     11.903417488     10.000000007 2
    11.776510861      8.931084796      9.999999995 2
    16.927118811     13.750494130      9.999999987 2
    12.483194507     13.255509591     14.399917154 1
    11.233137209     12.415990517     14.010478772 1
    13.121318809     13.831417549     13.126147067 1
    12.178318016     11.101965437     14.930979786 2
    12.113788527     14.088473525     15.044978413 2
    13.935477982     14.551946201     13.371133703 2
    13.544472469     13.009415182     12.500000027 2
    12.336476895     14.347406253     12.529732238 2
    14.375711734     12.325938463     14.735799355 2
    13.597641656     12.752609477     16.157611864 2
    13.435203476     12.360565149     15.199668388 3
    11.286945197     11.135461862     14.452105590 4
    10.309776249     12.883978192     13.358747135 4
%endblock AtomicCoordinatesAndAtomicSpecies
###K-Point Mesh###
%block kgrid_Monkhorst_Pack
1   0   0   0.0
0   1   0   0.0
0   0   1   0.0
%endblock kgrid_Monkhorst_Pack
###SCF PARAMS###
MeshCutoff          250 Ry
PAO.BasisType       split
PAO.BasisSize       DZP
PAO.EnergyShift     0.1 eV
XC.functional VDW
XC.authors KBM
MaxSCFIterations    1
SCF.MustConverge    F
DM.MixingWeight    0.01
DM.NumberPulay     20
DM.Tolerance        1.d-5
DM.UseSaveDM        T
ElectronicTemperature 10 K
DirectPhi           T
###DIAGONALIZATION###
SolutionMethod      diagon
###DIAG-ALGORITHM###
# Diag.Algorithm ELPA
###CACHE WAVEFUNC###
# Diag.WFS.Cache cdf
###PARALLELIZATION###
Diag.ParallelOverK  F
###MOLECULAR DYNAMICS###
MD.TypeOfRun        CG
MD.NumCGsteps       0
MD.UseSaveXV        T
MD.UseSaveCG        T
###OPTICAL PARAMETERS###
OpticalCalculation T
Optical.Energy.Minimum 0 eV
Optical.Energy.Maximum 10 eV
Optical.Broaden 0.05 eV
Optical.PolarizationType polarized
%block  Optical.Mesh
3 3 1
%endblock  Optical.Mesh
%block  Optical.Vector
1.0 0.0 0.0
%endblock  Optical.Vector
************************** End of input data file *****************************

reinit: -----------------------------------------------------------------------
reinit: System Name: 
reinit: -----------------------------------------------------------------------
reinit: System Label: siesta
reinit: -----------------------------------------------------------------------

initatom: Reading input for the pseudopotentials and atomic orbitals ----------
Species number:   1 Atomic number:    6 Label: C
Species number:   2 Atomic number:    1 Label: H
Species number:   3 Atomic number:    7 Label: N
Species number:   4 Atomic number:    8 Label: O

Ground state valence configuration (from tables):   2s02  2p02  3d00  4f00
Ground state valence configuration (from tables):   1s01  2p00  3d00  4f00
Ground state valence configuration (from tables):   2s02  2p03  3d00  4f00
Ground state valence configuration (from tables):   2s02  2p04  3d00  4f00

---- Processing specs for species: C
Reading pseudopotential information in formatted form from:
  C.psf

---- Processing specs for species: H
Reading pseudopotential information in formatted form from:
  H.psf

---- Processing specs for species: N
Reading pseudopotential information in formatted form from:
  N.psf

---- Processing specs for species: O
Reading pseudopotential information in formatted form from:
  O.psf

---- Pseudopotential check for  C

Pseudopotential generated from a fully relativistic atomic calculation
There are spin-orbit semi-local pseudopotentials available

Pseudized shells:
2s( 2.00) rc: 1.01
2p( 2.00) rc: 1.28
3d( 0.00) rc: 1.60
4f( 0.00) rc: 1.60
Valence configuration for ps generation: (assumed as above)

---- Pseudopotential check for  H

Pseudopotential generated from a fully relativistic atomic calculation
There are spin-orbit semi-local pseudopotentials available

Pseudized shells:
1s( 1.00) rc: 1.31
2p( 0.00) rc: 1.13
3d( 0.00) rc: 1.09
4f( 0.00) rc: 1.14
Valence configuration for ps generation: (assumed as above)

---- Pseudopotential check for N 

Pseudopotential generated from a fully relativistic atomic calculation
There are spin-orbit semi-local pseudopotentials available

Pseudized shells:
2s( 2.00) rc: 1.29
2p( 3.00) rc: 1.42
3d( 0.00) rc: 1.74
4f( 0.00) rc: 2.98
Valence configuration for ps generation: (assumed as above)

---- Pseudopotential check for  O

Pseudopotential generated from a fully relativistic atomic calculation
There are spin-orbit semi-local pseudopotentials available

Pseudized shells:
2s( 2.00) rc: 0.77
2p( 4.00) rc: 1.77
3d( 0.00) rc: 1.07
4f( 0.00) rc: 1.66
Valence configuration for ps generation: (assumed as above)
For C, standard SIESTA heuristics set lmxkb to 3
 (one more than the basis l, including polarization orbitals).
Use PS.lmax or PS.KBprojectors blocks to override.
For H, standard SIESTA heuristics set lmxkb to 2
 (one more than the basis l, including polarization orbitals).
Use PS.lmax or PS.KBprojectors blocks to override.
For N, standard SIESTA heuristics set lmxkb to 3
 (one more than the basis l, including polarization orbitals).
Use PS.lmax or PS.KBprojectors blocks to override.
For O, standard SIESTA heuristics set lmxkb to 3
 (one more than the basis l, including polarization orbitals).
Use PS.lmax or PS.KBprojectors blocks to override.

<basis_specs>
===============================================================================
C                    Z=   6    Mass=  12.011        Charge= 0.17977+309
Lmxo=2 Lmxkb= 3    BasisType=split      Semic=F
L=0  Nsemic=0  Cnfigmx=2
          i=1  nzeta=2  polorb=0  (2s)
            splnorm:   0.15000    
               vcte:    40.000    
               rinn:  -0.90000    
               qcoe:    0.0000    
               qyuk:    0.0000    
               qwid:   0.10000E-01
                rcs:    0.0000      0.0000    
            lambdas:    1.0000      1.0000    
L=1  Nsemic=0  Cnfigmx=2
          i=1  nzeta=2  polorb=1  (2p)  (to be polarized perturbatively)
            splnorm:   0.15000    
               vcte:    40.000    
               rinn:  -0.90000    
               qcoe:    0.0000    
               qyuk:    0.0000    
               qwid:   0.10000E-01
                rcs:    0.0000      0.0000    
            lambdas:    1.0000      1.0000    
L=2  Nsemic=0  Cnfigmx=3
          i=1  nzeta=0  polorb=0  (3d)  (perturbative polarization orbital) (from 2p)
-------------------------------------------------------------------------------
L=0  Nkbl=1  erefs: 0.17977+309
L=1  Nkbl=1  erefs: 0.17977+309
L=2  Nkbl=1  erefs: 0.17977+309
L=3  Nkbl=1  erefs: 0.17977+309
===============================================================================
</basis_specs>

Using PAO.SplitTailNorm
atom: Called for C                     (Z =   6)
Maximum radius (at nrval) set to   50.00000 8518

read_vps: Pseudopotential generation method:
read_vps: ATM4.1.0  Troullier-Martins                       
Valence charge in pseudo generation:    4.00000

read_vps: Pseudopotential includes a core correction:
read_vps: Pseudo-core for xc-correction

xc_check: Exchange-correlation functional:
xc_check: VDW Klimes-Bowler-Michaelides
xc_check: WARNING: Pseudopotential generated with GGA PBE functional
V l=0 = -2*Zval/r beyond r=  1.3182
V l=1 = -2*Zval/r beyond r=  1.3464
V l=2 = -2*Zval/r beyond r=  1.5833
V l=3 = -2*Zval/r beyond r=  1.5786
All V_l potentials equal beyond r=  1.5770
This should be close to max(r_c) in ps generation
All pots = -2*Zval/r beyond r=  1.5833
Using small-core scheme (local charge) for Vlocal

VLOCAL_FROM_CHLOCAL: 99.0% of the norm of Vloc inside     17.455 Ry
VLOCAL_FROM_CHLOCAL: 99.9% of the norm of Vloc inside     39.780 Ry
atom: Maximum radius for chlocal:    1.88237
atom: Maximum radius for r*vlocal+2*Zval:    1.72643

KBgen: Kleinman-Bylander projectors: 
GHOST: No ghost state for L =  0
   l= 0   rc=  1.736877   el= -1.020388   Ekb=  8.249114   kbcos=  0.220505
GHOST: No ghost state for L =  1
   l= 1   rc=  1.735131   el= -0.401258   Ekb= -5.619827   kbcos= -0.328599
GHOST: No ghost state for L =  2
   l= 2   rc=  2.031796   el=  0.013225   Ekb= -0.930857   kbcos= -0.011208
GHOST: No ghost state for L =  3
   l= 3   rc=  2.292119   el=  0.019576   Ekb= -0.391040   kbcos= -0.001576

KBgen: Total number of Kleinman-Bylander projectors:  16
atom: -------------------------------------------------------------------------

atom: SANKEY-TYPE ORBITALS:
atom: Selected multiple-zeta basis: split     

SPLIT: Orbitals with angular momentum L= 0

SPLIT: Basis orbitals for state 2s

SPLIT: PAO cut-off radius determined from an
SPLIT: energy shift=  0.007350 Ry
Split based on tail norm

   izeta = 1
                 lambda =    1.000000
                     rc =    4.649135
                 energy =   -1.012056
                kinetic =    0.924199
    potential(screened) =   -1.936254
       potential(ionic) =   -5.500926

   izeta = 2
                 rmatch =    3.097535
              splitnorm =    0.150000
                 energy =   -0.753048
                kinetic =    1.677436
    potential(screened) =   -2.430485
       potential(ionic) =   -6.288589

SPLIT: Orbitals with angular momentum L= 1

SPLIT: Basis orbitals for state 2p

SPLIT: PAO cut-off radius determined from an
SPLIT: energy shift=  0.007350 Ry
Split based on tail norm

   izeta = 1
                 lambda =    1.000000
                     rc =    5.669310
                 energy =   -0.392975
                kinetic =    2.506148
    potential(screened) =   -2.899123
       potential(ionic) =   -6.340802

   izeta = 2
                 rmatch =    3.774182
              splitnorm =    0.150000
                 energy =   -0.275270
                kinetic =    3.603259
    potential(screened) =   -3.878528
       potential(ionic) =   -7.663255

POLgen: Perturbative polarization orbital with L=  2

POLgen: Polarization orbital for state 2p
Split based on tail norm

   izeta = 1
                     rc =    5.669310
                 energy =    1.122389
                kinetic =    2.278964
    potential(screened) =   -1.156575
       potential(ionic) =   -3.981653
atom: Total number of Sankey-type orbitals: 13

atm_pop: Valence configuration (for local Pseudopot. screening):
 2s( 2.00)                                                            
 2p( 2.00)                                                            
 3d( 0.00)                                                            
Vna: chval, zval:    4.00000   4.00000

Vna:  Cut-off radius for the neutral-atom potential:   5.669310
comcore: Pseudo-core radius Rcore=  1.772167

atom: _________________________________________________________________________

<basis_specs>
===============================================================================
H                    Z=   1    Mass=  1.0080        Charge= 0.17977+309
Lmxo=1 Lmxkb= 2    BasisType=split      Semic=F
L=0  Nsemic=0  Cnfigmx=1
          i=1  nzeta=2  polorb=1  (1s)  (to be polarized perturbatively)
            splnorm:   0.15000    
               vcte:    40.000    
               rinn:  -0.90000    
               qcoe:    0.0000    
               qyuk:    0.0000    
               qwid:   0.10000E-01
                rcs:    0.0000      0.0000    
            lambdas:    1.0000      1.0000    
L=1  Nsemic=0  Cnfigmx=2
          i=1  nzeta=0  polorb=0  (2p)  (perturbative polarization orbital) (from 1s)
-------------------------------------------------------------------------------
L=0  Nkbl=1  erefs: 0.17977+309
L=1  Nkbl=1  erefs: 0.17977+309
L=2  Nkbl=1  erefs: 0.17977+309
===============================================================================
</basis_specs>

Using PAO.SplitTailNorm
atom: Called for H                     (Z =   1)
Maximum radius (at nrval) set to   50.00000 8518

read_vps: Pseudopotential generation method:
read_vps: ATM4.1.0  Troullier-Martins                       
Valence charge in pseudo generation:    1.00000

xc_check: Exchange-correlation functional:
xc_check: VDW Klimes-Bowler-Michaelides
xc_check: WARNING: Pseudopotential generated with GGA PBE functional
V l=0 = -2*Zval/r beyond r=  1.3024
V l=1 = -2*Zval/r beyond r=  1.2802
V l=2 = -2*Zval/r beyond r=  1.2802
All V_l potentials equal beyond r=  1.3011
This should be close to max(r_c) in ps generation
All pots = -2*Zval/r beyond r=  1.3024
Using small-core scheme (local charge) for Vlocal

VLOCAL_FROM_CHLOCAL: 99.0% of the norm of Vloc inside     25.643 Ry
VLOCAL_FROM_CHLOCAL: 99.9% of the norm of Vloc inside     58.442 Ry
atom: Maximum radius for chlocal:    1.51933
atom: Maximum radius for r*vlocal+2*Zval:    1.37795

KBgen: Kleinman-Bylander projectors: 
GHOST: No ghost state for L =  0
   l= 0   rc=  1.452036   el= -0.494844   Ekb= -1.962033   kbcos= -0.366867
GHOST: No ghost state for L =  1
   l= 1   rc=  1.709150   el=  0.006534   Ekb= -0.631641   kbcos= -0.022353
GHOST: No ghost state for L =  2
   l= 2   rc=  2.001398   el=  0.013276   Ekb= -0.260152   kbcos= -0.002632

KBgen: Total number of Kleinman-Bylander projectors:   9
atom: -------------------------------------------------------------------------

atom: SANKEY-TYPE ORBITALS:
atom: Selected multiple-zeta basis: split     

SPLIT: Orbitals with angular momentum L= 0

SPLIT: Basis orbitals for state 1s

SPLIT: PAO cut-off radius determined from an
SPLIT: energy shift=  0.007350 Ry
Split based on tail norm

   izeta = 1
                 lambda =    1.000000
                     rc =    5.424839
                 energy =   -0.486555
                kinetic =    0.944729
    potential(screened) =   -1.431284
       potential(ionic) =   -1.937848

   izeta = 2
                 rmatch =    3.582433
              splitnorm =    0.150000
                 energy =   -0.330505
                kinetic =    1.688410
    potential(screened) =   -2.018915
       potential(ionic) =   -2.546203

POLgen: Perturbative polarization orbital with L=  1

POLgen: Polarization orbital for state 1s
Split based on tail norm

   izeta = 1
                     rc =    5.424839
                 energy =    0.650312
                kinetic =    1.305598
    potential(screened) =   -0.655287
       potential(ionic) =   -1.130048
atom: Total number of Sankey-type orbitals:  5

atm_pop: Valence configuration (for local Pseudopot. screening):
 1s( 1.00)                                                            
 2p( 0.00)                                                            
Vna: chval, zval:    1.00000   1.00000

Vna:  Cut-off radius for the neutral-atom potential:   5.424839

atom: _________________________________________________________________________

<basis_specs>
===============================================================================
N                    Z=   7    Mass=  14.007        Charge= 0.17977+309
Lmxo=2 Lmxkb= 3    BasisType=split      Semic=F
L=0  Nsemic=0  Cnfigmx=2
          i=1  nzeta=2  polorb=0  (2s)
            splnorm:   0.15000    
               vcte:    40.000    
               rinn:  -0.90000    
               qcoe:    0.0000    
               qyuk:    0.0000    
               qwid:   0.10000E-01
                rcs:    0.0000      0.0000    
            lambdas:    1.0000      1.0000    
L=1  Nsemic=0  Cnfigmx=2
          i=1  nzeta=2  polorb=1  (2p)  (to be polarized perturbatively)
            splnorm:   0.15000    
               vcte:    40.000    
               rinn:  -0.90000    
               qcoe:    0.0000    
               qyuk:    0.0000    
               qwid:   0.10000E-01
                rcs:    0.0000      0.0000    
            lambdas:    1.0000      1.0000    
L=2  Nsemic=0  Cnfigmx=3
          i=1  nzeta=0  polorb=0  (3d)  (perturbative polarization orbital) (from 2p)
-------------------------------------------------------------------------------
L=0  Nkbl=1  erefs: 0.17977+309
L=1  Nkbl=1  erefs: 0.17977+309
L=2  Nkbl=1  erefs: 0.17977+309
L=3  Nkbl=1  erefs: 0.17977+309
===============================================================================
</basis_specs>

Using PAO.SplitTailNorm
atom: Called for N                     (Z =   7)
Maximum radius (at nrval) set to   50.00000 8518

read_vps: Pseudopotential generation method:
read_vps: ATM4.1.0  Troullier-Martins                       
Valence charge in pseudo generation:    5.00000

read_vps: Pseudopotential includes a core correction:
read_vps: Pseudo-core for xc-correction

xc_check: Exchange-correlation functional:
xc_check: VDW Klimes-Bowler-Michaelides
xc_check: WARNING: Pseudopotential generated with GGA PBE functional
V l=0 = -2*Zval/r beyond r=  1.3919
V l=1 = -2*Zval/r beyond r=  1.4145
V l=2 = -2*Zval/r beyond r=  1.7230
V l=3 = -2*Zval/r beyond r=  2.9342
All V_l potentials equal beyond r=  2.9166
This should be close to max(r_c) in ps generation
All pots = -2*Zval/r beyond r=  2.9342
Using small-core scheme (local charge) for Vlocal

VLOCAL_FROM_CHLOCAL: 99.0% of the norm of Vloc inside      5.103 Ry
VLOCAL_FROM_CHLOCAL: 99.9% of the norm of Vloc inside     11.630 Ry
atom: Maximum radius for chlocal:    3.45541
atom: Maximum radius for r*vlocal+2*Zval:    3.20822

KBgen: Kleinman-Bylander projectors: 
GHOST: No ghost state for L =  0
   l= 0   rc=  3.023842   el= -1.375728   Ekb= -2.823702   kbcos= -0.744201
GHOST: No ghost state for L =  1
   l= 1   rc=  2.987653   el= -0.533023   Ekb= -8.682923   kbcos= -0.586664
GHOST: No ghost state for L =  2
   l= 2   rc=  3.306234   el=  0.013276   Ekb= -1.644735   kbcos= -0.033118
GHOST: No ghost state for L =  3
   l= 3   rc=  3.448482   el=  0.019583   Ekb= -0.283699   kbcos= -0.015721

KBgen: Total number of Kleinman-Bylander projectors:  16
atom: -------------------------------------------------------------------------

atom: SANKEY-TYPE ORBITALS:
atom: Selected multiple-zeta basis: split     

SPLIT: Orbitals with angular momentum L= 0

SPLIT: Basis orbitals for state 2s

SPLIT: PAO cut-off radius determined from an
SPLIT: energy shift=  0.007350 Ry
Split based on tail norm

   izeta = 1
                 lambda =    1.000000
                     rc =    4.081165
                 energy =   -1.367466
                kinetic =    1.207915
    potential(screened) =   -2.575381
       potential(ionic) =   -8.096668

   izeta = 2
                 rmatch =    2.654003
              splitnorm =    0.150000
                 energy =   -1.049355
                kinetic =    2.089693
    potential(screened) =   -3.139048
       potential(ionic) =   -9.141946

SPLIT: Orbitals with angular momentum L= 1

SPLIT: Basis orbitals for state 2p

SPLIT: PAO cut-off radius determined from an
SPLIT: energy shift=  0.007350 Ry
Split based on tail norm

   izeta = 1
                 lambda =    1.000000
                     rc =    4.996964
                 energy =   -0.524823
                kinetic =    3.499383
    potential(screened) =   -4.024206
       potential(ionic) =   -9.360818

   izeta = 2
                 rmatch =    3.237319
              splitnorm =    0.150000
                 energy =   -0.376275
                kinetic =    4.926275
    potential(screened) =   -5.302550
       potential(ionic) =  -11.169650

POLgen: Perturbative polarization orbital with L=  2

POLgen: Polarization orbital for state 2p
Split based on tail norm

   izeta = 1
                     rc =    4.996964
                 energy =    1.593927
                kinetic =    3.073939
    potential(screened) =   -1.480013
       potential(ionic) =   -5.759099
atom: Total number of Sankey-type orbitals: 13

atm_pop: Valence configuration (for local Pseudopot. screening):
 2s( 2.00)                                                            
 2p( 3.00)                                                            
 3d( 0.00)                                                            
Vna: chval, zval:    5.00000   5.00000

Vna:  Cut-off radius for the neutral-atom potential:   4.996964
comcore: Pseudo-core radius Rcore=  1.539341

atom: _________________________________________________________________________

<basis_specs>
===============================================================================
O                    Z=   8    Mass=  15.999        Charge= 0.17977+309
Lmxo=2 Lmxkb= 3    BasisType=split      Semic=F
L=0  Nsemic=0  Cnfigmx=2
          i=1  nzeta=2  polorb=0  (2s)
            splnorm:   0.15000    
               vcte:    40.000    
               rinn:  -0.90000    
               qcoe:    0.0000    
               qyuk:    0.0000    
               qwid:   0.10000E-01
                rcs:    0.0000      0.0000    
            lambdas:    1.0000      1.0000    
L=1  Nsemic=0  Cnfigmx=2
          i=1  nzeta=2  polorb=1  (2p)  (to be polarized perturbatively)
            splnorm:   0.15000    
               vcte:    40.000    
               rinn:  -0.90000    
               qcoe:    0.0000    
               qyuk:    0.0000    
               qwid:   0.10000E-01
                rcs:    0.0000      0.0000    
            lambdas:    1.0000      1.0000    
L=2  Nsemic=0  Cnfigmx=3
          i=1  nzeta=0  polorb=0  (3d)  (perturbative polarization orbital) (from 2p)
-------------------------------------------------------------------------------
L=0  Nkbl=1  erefs: 0.17977+309
L=1  Nkbl=1  erefs: 0.17977+309
L=2  Nkbl=1  erefs: 0.17977+309
L=3  Nkbl=1  erefs: 0.17977+309
===============================================================================
</basis_specs>

Using PAO.SplitTailNorm
atom: Called for O                     (Z =   8)
Maximum radius (at nrval) set to   50.00000 8518

read_vps: Pseudopotential generation method:
read_vps: ATM4.1.0  Troullier-Martins                       
Valence charge in pseudo generation:    6.00000

read_vps: Pseudopotential includes a core correction:
read_vps: Pseudo-core for xc-correction

xc_check: Exchange-correlation functional:
xc_check: VDW Klimes-Bowler-Michaelides
xc_check: WARNING: Pseudopotential generated with GGA PBE functional
V l=0 = -2*Zval/r beyond r=  1.7247
V l=1 = -2*Zval/r beyond r=  1.7580
V l=2 = -2*Zval/r beyond r=  1.7247
V l=3 = -2*Zval/r beyond r=  1.7247
All V_l potentials equal beyond r=  1.7562
This should be close to max(r_c) in ps generation
All pots = -2*Zval/r beyond r=  1.7580
Using small-core scheme (local charge) for Vlocal

VLOCAL_FROM_CHLOCAL: 99.0% of the norm of Vloc inside     14.074 Ry
VLOCAL_FROM_CHLOCAL: 99.9% of the norm of Vloc inside     32.075 Ry
atom: Maximum radius for chlocal:    2.10664
atom: Maximum radius for r*vlocal+2*Zval:    1.94000

KBgen: Kleinman-Bylander projectors: 
GHOST: No ghost state for L =  0
   l= 0   rc=  1.914815   el= -1.777109   Ekb=-12.883099   kbcos= -0.199777
GHOST: No ghost state for L =  1
   l= 1   rc=  1.905215   el= -0.682147   Ekb= -6.438893   kbcos= -0.577559
GHOST: No ghost state for L =  2
   l= 2   rc=  2.093978   el=  0.013299   Ekb= -2.963186   kbcos= -0.008111
GHOST: No ghost state for L =  3
   l= 3   rc=  2.402901   el=  0.019585   Ekb= -0.577341   kbcos= -0.002012

KBgen: Total number of Kleinman-Bylander projectors:  16
atom: -------------------------------------------------------------------------

atom: SANKEY-TYPE ORBITALS:
atom: Selected multiple-zeta basis: split     

SPLIT: Orbitals with angular momentum L= 0

SPLIT: Basis orbitals for state 2s

SPLIT: PAO cut-off radius determined from an
SPLIT: energy shift=  0.007350 Ry
Split based on tail norm

   izeta = 1
                 lambda =    1.000000
                     rc =    3.655005
                 energy =   -1.768939
                kinetic =    1.719971
    potential(screened) =   -3.488910
       potential(ionic) =  -11.303034

   izeta = 2
                 rmatch =    2.326911
              splitnorm =    0.150000
                 energy =   -1.349000
                kinetic =    3.044643
    potential(screened) =   -4.393643
       potential(ionic) =  -12.875785

SPLIT: Orbitals with angular momentum L= 1

SPLIT: Basis orbitals for state 2p

SPLIT: PAO cut-off radius determined from an
SPLIT: energy shift=  0.007350 Ry
Split based on tail norm

   izeta = 1
                 lambda =    1.000000
                     rc =    4.475410
                 energy =   -0.673990
                kinetic =    4.284088
    potential(screened) =   -4.958077
       potential(ionic) =  -12.470506

   izeta = 2
                 rmatch =    2.832915
              splitnorm =    0.150000
                 energy =   -0.486678
                kinetic =    5.911252
    potential(screened) =   -6.397931
       potential(ionic) =  -14.613396

POLgen: Perturbative polarization orbital with L=  2

POLgen: Polarization orbital for state 2p
Split based on tail norm

   izeta = 1
                     rc =    4.475410
                 energy =    2.156729
                kinetic =    4.153113
    potential(screened) =   -1.996384
       potential(ionic) =   -8.041506
atom: Total number of Sankey-type orbitals: 13

atm_pop: Valence configuration (for local Pseudopot. screening):
 2s( 2.00)                                                            
 2p( 4.00)                                                            
 3d( 0.00)                                                            
Vna: chval, zval:    6.00000   6.00000

Vna:  Cut-off radius for the neutral-atom potential:   4.475410
comcore: Pseudo-core radius Rcore=  1.364142

atom: _________________________________________________________________________

prinput: Basis input 

PAO.BasisType split     

%block ChemicalSpeciesLabel
    1    6 C                       # Species index, atomic number, species label
    2    1 H                       # Species index, atomic number, species label
    3    7 N                       # Species index, atomic number, species label
    4    8 O                       # Species index, atomic number, species label
%endblock ChemicalSpeciesLabel

%block PAO.Basis                 # Define Basis set
# WARNING: This information might be incomplete!
C                     2                    # Species label, number of l-shells
 n=2   0   2                         # n, l, Nzeta 
   4.649      3.098   
   1.000      1.000   
 n=2   1   2 P   1                   # n, l, Nzeta, Polarization, NzetaPol
   5.669      3.774   
   1.000      1.000   
H                     1                    # Species label, number of l-shells
 n=1   0   2 P   1                   # n, l, Nzeta, Polarization, NzetaPol
   5.425      3.582   
   1.000      1.000   
N                     2                    # Species label, number of l-shells
 n=2   0   2                         # n, l, Nzeta 
   4.081      2.654   
   1.000      1.000   
 n=2   1   2 P   1                   # n, l, Nzeta, Polarization, NzetaPol
   4.997      3.237   
   1.000      1.000   
O                     2                    # Species label, number of l-shells
 n=2   0   2                         # n, l, Nzeta 
   3.655      2.327   
   1.000      1.000   
 n=2   1   2 P   1                   # n, l, Nzeta, Polarization, NzetaPol
   4.475      2.833   
   1.000      1.000   
%endblock PAO.Basis

prinput: ----------------------------------------------------------------------

Dumping basis to NetCDF file C.ion.nc
Dumping basis to NetCDF file H.ion.nc
Dumping basis to NetCDF file N.ion.nc
Dumping basis to NetCDF file O.ion.nc
coor:   Atomic-coordinates input format  =     Cartesian coordinates
coor:                                          (in Angstroms)

ioxv: Reading coordinates and velocities from file
! Info in XV file prevails over previous structure input

siesta: Atomic coordinates (Bohr) and species
siesta:      1.16622  45.78560  18.89726  1        1
siesta:     31.48638  33.61352  18.89726  1        2
siesta:     29.10947  34.98097  18.89726  1        3
siesta:     29.15551  37.70579  18.89726  1        4
siesta:     31.48795  39.05242  18.89726  1        5
siesta:     31.48795  41.74569  18.89726  1        6
siesta:     29.15551  43.09233  18.89726  1        7
siesta:     33.82039  45.78560  18.89726  1        8
siesta:     36.15283  47.13223  18.89726  1        9
siesta:     36.15283   1.34664  18.89726  1       10
siesta:     33.82039   2.69327  18.89726  1       11
siesta:     33.82039   5.38654  18.89726  1       12
siesta:     36.15283   6.73318  18.89726  1       13
siesta:     36.15283   9.42645  18.89726  1       14
siesta:     33.82039  10.77308  18.89726  1       15
siesta:     33.82039  13.46635  18.89726  1       16
siesta:     36.15283  14.81299  18.89726  1       17
siesta:     36.15283  17.50626  18.89726  1       18
siesta:     33.81150  18.85445  18.89726  1       19
siesta:     33.83420  21.52507  18.89726  1       20
siesta:     36.09956  22.86526  18.89726  1       21
siesta:     36.09956  25.61361  18.89726  1       22
siesta:     33.83420  26.95380  18.89726  1       23
siesta:     33.81150  29.62442  18.89726  1       24
siesta:     31.51647  30.96915  18.89726  1       25
siesta:     36.15283  30.97261  18.89726  1       26
siesta:     31.51647  17.50972  18.89726  1       27
siesta:     29.10947  13.49790  18.89726  1       28
siesta:     24.49063  45.78560  18.89726  1       29
siesta:     26.82307  47.13223  18.89726  1       30
siesta:     26.82307   1.34664  18.89726  1       31
siesta:     24.49063   5.38654  18.89726  1       32
siesta:     26.82307   6.73318  18.89726  1       33
siesta:     26.82307   9.42645  18.89726  1       34
siesta:     24.49063  10.77308  18.89726  1       35
siesta:     24.49063  13.47948  18.89726  1       36
siesta:     26.80854  14.79359  18.89726  1       37
siesta:     26.80854  33.68528  18.89726  1       38
siesta:     24.49063  34.99938  18.89726  1       39
siesta:     24.49063  37.70579  18.89726  1       40
siesta:     26.82307  39.05242  18.89726  1       41
siesta:     26.82307  41.74569  18.89726  1       42
siesta:     24.49063  43.09233  18.89726  1       43
siesta:     29.15551  45.78560  18.89726  1       44
siesta:     31.48795  47.13223  18.89726  1       45
siesta:     31.48795   1.34664  18.89726  1       46
siesta:     29.15551   2.69327  18.89726  1       47
siesta:     29.15551   5.38654  18.89726  1       48
siesta:     31.48795   6.73318  18.89726  1       49
siesta:     31.48795   9.42645  18.89726  1       50
siesta:     29.15551  10.77308  18.89726  1       51
siesta:     31.48638  14.86535  18.89726  1       52
siesta:     36.15283  33.66588  18.89726  1       53
siesta:     33.82039  35.01252  18.89726  1       54
siesta:     33.82039  37.70579  18.89726  1       55
siesta:     45.48259  47.13223  18.89726  1       56
siesta:     45.48259   1.34664  18.89726  1       57
siesta:     43.15015   2.69327  18.89726  1       58
siesta:     43.15015   5.38654  18.89726  1       59
siesta:     45.48259   6.73318  18.89726  1       60
siesta:     45.48259   9.42645  18.89726  1       61
siesta:     43.15015  10.77308  18.89726  1       62
siesta:     43.15015  13.46635  18.89726  1       63
siesta:     45.48259  14.81299  18.89726  1       64
siesta:     45.48259  17.50626  18.89726  1       65
siesta:     43.15015  18.85289  18.89726  1       66
siesta:     43.15015  21.54616  18.89726  1       67
siesta:     45.48259  22.89280  18.89726  1       68
siesta:     45.48259  25.58607  18.89726  1       69
siesta:     43.15015  26.93270  18.89726  1       70
siesta:     43.15015  29.62597  18.89726  1       71
siesta:     45.48259  30.97261  18.89726  1       72
siesta:     45.48259  33.66588  18.89726  1       73
siesta:     43.15015  35.01252  18.89726  1       74
siesta:     43.15015  37.70579  18.89726  1       75
siesta:     45.48259  39.05242  18.89726  1       76
siesta:     45.48259  41.74569  18.89726  1       77
siesta:     43.15015  43.09233  18.89726  1       78
siesta:     43.15015  45.78560  18.89726  1       79
siesta:     38.48527  43.09233  18.89726  1       80
siesta:     40.81771  41.74569  18.89726  1       81
siesta:     40.81771  39.05242  18.89726  1       82
siesta:     36.15283  39.05242  18.89726  1       83
siesta:     36.15283  41.74569  18.89726  1       84
siesta:     33.82039  43.09233  18.89726  1       85
siesta:     38.48527  45.78560  18.89726  1       86
siesta:     40.81771  47.13223  18.89726  1       87
siesta:     40.81771   1.34664  18.89726  1       88
siesta:     38.48527   2.69327  18.89726  1       89
siesta:     38.48527   5.38654  18.89726  1       90
siesta:     40.81771   6.73318  18.89726  1       91
siesta:     40.81771   9.42645  18.89726  1       92
siesta:     38.48527  10.77308  18.89726  1       93
siesta:     19.82574  43.09233  18.89726  1       94
siesta:     38.48527  13.46635  18.89726  1       95
siesta:     40.81771  17.50626  18.89726  1       96
siesta:     38.48527  18.85289  18.89726  1       97
siesta:     38.48527  21.54616  18.89726  1       98
siesta:     40.81771  22.89280  18.89726  1       99
siesta:     40.81771  25.58607  18.89726  1      100
siesta:     38.48527  26.93270  18.89726  1      101
siesta:     38.48527  29.62597  18.89726  1      102
siesta:     40.81771  30.97261  18.89726  1      103
siesta:     40.81771  33.66588  18.89726  1      104
siesta:     38.48527  35.01252  18.89726  1      105
siesta:     38.48527  37.70579  18.89726  1      106
siesta:     40.81771  14.81299  18.89726  1      107
siesta:     22.15819  41.74569  18.89726  1      108
siesta:     24.49063   2.69327  18.89726  1      109
siesta:     19.82574  37.70579  18.89726  1      110
siesta:      8.16354   6.73318  18.89726  1      111
siesta:      8.16354   9.42645  18.89726  1      112
siesta:      5.83110  10.77308  18.89726  1      113
siesta:      5.83110  13.46635  18.89726  1      114
siesta:      8.16354  14.81299  18.89726  1      115
siesta:      8.16354  17.50626  18.89726  1      116
siesta:      5.83110  18.85289  18.89726  1      117
siesta:      5.83110  21.54616  18.89726  1      118
siesta:      8.16354  22.89280  18.89726  1      119
siesta:      8.16354  25.58607  18.89726  1      120
siesta:      5.83110  26.93270  18.89726  1      121
siesta:      5.83110  29.62597  18.89726  1      122
siesta:      8.16354  30.97261  18.89726  1      123
siesta:      8.16354  33.66588  18.89726  1      124
siesta:      5.83110  35.01252  18.89726  1      125
siesta:      5.83110  37.70579  18.89726  1      126
siesta:      8.16354  39.05242  18.89726  1      127
siesta:      8.16354  41.74569  18.89726  1      128
siesta:      5.83110  43.09233  18.89726  1      129
siesta:     22.15819  39.05242  18.89726  1      130
siesta:     12.82842  47.13223  18.89726  1      131
siesta:     12.82842   1.34664  18.89726  1      132
siesta:     10.49598   2.69327  18.89726  1      133
siesta:      5.83110   5.38654  18.89726  1      134
siesta:      5.83110   2.69327  18.89726  1      135
siesta:      8.16354   1.34664  18.89726  1      136
siesta:      8.16354  47.13223  18.89726  1      137
siesta:      3.49866  47.13223  18.89726  1      138
siesta:      3.49866   1.34664  18.89726  1      139
siesta:      1.16622   2.69327  18.89726  1      140
siesta:      1.16622   5.38654  18.89726  1      141
siesta:      3.49866   6.73318  18.89726  1      142
siesta:      3.49866   9.42645  18.89726  1      143
siesta:      1.16622  10.77308  18.89726  1      144
siesta:      1.16622  13.46635  18.89726  1      145
siesta:      3.49866  14.81299  18.89726  1      146
siesta:      3.49866  17.50626  18.89726  1      147
siesta:      1.16622  18.85289  18.89726  1      148
siesta:     10.49598   5.38654  18.89726  1      149
siesta:      1.16622  21.54616  18.89726  1      150
siesta:      3.49866  25.58607  18.89726  1      151
siesta:      1.16622  26.93270  18.89726  1      152
siesta:      1.16622  29.62597  18.89726  1      153
siesta:      3.49866  30.97261  18.89726  1      154
siesta:      3.49866  33.66588  18.89726  1      155
siesta:      1.16622  35.01252  18.89726  1      156
siesta:      1.16622  37.70579  18.89726  1      157
siesta:      3.49866  39.05242  18.89726  1      158
siesta:      3.49866  41.74569  18.89726  1      159
siesta:      1.16622  43.09233  18.89726  1      160
siesta:      5.83110  45.78560  18.89726  1      161
siesta:      3.49866  22.89280  18.89726  1      162
siesta:     12.82842   6.73318  18.89726  1      163
siesta:     10.49598  45.78560  18.89726  1      164
siesta:     10.49598  10.77308  18.89726  1      165
siesta:     15.16975  18.85445  18.89726  1      166
siesta:     15.14705  21.52507  18.89726  1      167
siesta:     15.14705  26.95380  18.89726  1      168
siesta:     12.82842   9.42645  18.89726  1      169
siesta:     17.46478  30.96915  18.89726  1      170
siesta:     17.49487  33.61352  18.89726  1      171
siesta:     15.16086  35.01252  18.89726  1      172
siesta:     15.16086  37.70579  18.89726  1      173
siesta:     17.49330  39.05242  18.89726  1      174
siesta:     17.49330  41.74569  18.89726  1      175
siesta:     15.16086  43.09233  18.89726  1      176
siesta:     19.82574  45.78560  18.89726  1      177
siesta:     22.15819  47.13223  18.89726  1      178
siesta:     22.15819   1.34664  18.89726  1      179
siesta:     19.82574   2.69327  18.89726  1      180
siesta:     19.82574   5.38654  18.89726  1      181
siesta:     22.15819   6.73318  18.89726  1      182
siesta:     22.15819   9.42645  18.89726  1      183
siesta:     19.82574  10.77308  18.89726  1      184
siesta:     19.87178  13.49790  18.89726  1      185
siesta:     22.17271  14.79359  18.89726  1      186
siesta:     22.17271  33.68528  18.89726  1      187
siesta:     19.87178  34.98097  18.89726  1      188
siesta:     17.46478  17.50972  18.89726  1      189
siesta:     17.49487  14.86535  18.89726  1      190
siesta:     15.16975  29.62442  18.89726  1      191
siesta:     15.16086  10.77308  18.89726  1      192
siesta:     10.49598  13.46635  18.89726  1      193
siesta:     12.82842  14.81299  18.89726  1      194
siesta:     12.82842  17.50626  18.89726  1      195
siesta:     10.49598  18.85289  18.89726  1      196
siesta:     10.49598  21.54616  18.89726  1      197
siesta:     15.16086  13.46635  18.89726  1      198
siesta:     12.88169  25.61361  18.89726  1      199
siesta:     10.49598  26.93270  18.89726  1      200
siesta:     10.49598  29.62597  18.89726  1      201
siesta:     12.82842  30.97261  18.89726  1      202
siesta:     12.82842  33.66588  18.89726  1      203
siesta:     12.88169  22.86526  18.89726  1      204
siesta:     10.49598  37.70579  18.89726  1      205
siesta:     10.49598  35.01252  18.89726  1      206
siesta:     17.49330   6.73318  18.89726  1      207
siesta:     15.16086   5.38654  18.89726  1      208
siesta:     15.16086   2.69327  18.89726  1      209
siesta:     17.49330   1.34664  18.89726  1      210
siesta:     17.49330   9.42645  18.89726  1      211
siesta:     15.16086  45.78560  18.89726  1      212
siesta:     10.49598  43.09233  18.89726  1      213
siesta:     12.82842  41.74569  18.89726  1      214
siesta:     12.82842  39.05242  18.89726  1      215
siesta:     17.49330  47.13223  18.89726  1      216
siesta:     29.75292  29.85660  18.89726  2      217
siesta:     29.75292  18.62227  18.89726  2      218
siesta:     26.72687  31.60156  18.89726  2      219
siesta:     26.72687  16.87730  18.89726  2      220
siesta:     22.25438  31.60156  18.89726  2      221
siesta:     19.22833  29.85660  18.89726  2      222
siesta:     16.99363  25.98467  18.89726  2      223
siesta:     16.99363  22.49420  18.89726  2      224
siesta:     19.22833  18.62227  18.89726  2      225
siesta:     31.98762  22.49420  18.89726  2      226
siesta:     22.25438  16.87730  18.89726  2      227
siesta:     31.98762  25.98467  18.89726  2      228
siesta:     23.58982  25.04928  27.21190  1      229
siesta:     21.22755  23.46282  26.47597  1      230
siesta:     24.79570  26.13759  24.80482  1      231
siesta:     23.01369  20.97967  28.21546  2      232
siesta:     22.89174  26.62336  28.43089  2      233
siesta:     26.33424  27.49919  25.26778  2      234
siesta:     25.59534  24.58423  23.62158  2      235
siesta:     23.31256  27.11267  23.67776  2      236
siesta:     27.16616  23.29265  27.84663  2      237
siesta:     25.69582  24.09894  30.53346  2      238
siesta:     25.38885  23.35808  28.72321  3      239
siesta:     21.32924  21.04297  27.31052  4      240
siesta:     19.48265  24.34719  25.24437  4      241

siesta: System type = slab      

initatomlists: Number of atoms, orbitals, and projectors:    241  2981  3723

siesta: ******************** Simulation parameters ****************************
siesta:
siesta: The following are some of the parameters of the simulation.
siesta: A complete list of the parameters used, including default values,
siesta: can be found in file out.fdf
siesta:
redata: Spin configuration                          = none
redata: Number of spin components                   = 1
redata: Time-Reversal Symmetry                      = T
redata: Spin spiral                                 = F
redata: Long output                                 =   F
redata: Number of Atomic Species                    =        4
redata: Charge density info will appear in .RHO file
redata: Write Mulliken charges (when)               = none
redata: Write Mulliken Pop.                         = NO
redata: Write Hirshfeld charges (when)              = none
redata: Write Voronoi charges (when)                = none
redata: Write spin charge (when)                    = none
redata: Matel table size (NRTAB)                    =     1024
redata: Mesh Cutoff                                 =   250.0000 Ry
redata: Net charge of the system                    =     0.0000 |e|
redata: Min. number of SCF Iter                     =        0
redata: Max. number of SCF Iter                     =        1
redata: SCF mix quantity                            = Hamiltonian
redata: Mix DM or H after convergence               =   F
redata: Recompute H after scf cycle                 =   F
redata: Mix DM in first SCF step                    =   T
redata: Write Pulay info on disk                    =   F
redata: New DM Occupancy tolerance                  = 0.000000000001
redata: No kicks to SCF
redata: DM Mixing Weight for Kicks                  =     0.5000
redata: Require Harris convergence for SCF          =   F
redata: Harris energy tolerance for SCF             =     0.000100 eV
redata: Require DM convergence for SCF              =   T
redata: DM tolerance for SCF                        =     0.000010
redata: Require EDM convergence for SCF             =   F
redata: EDM tolerance for SCF                       =     0.001000 eV
redata: Require H convergence for SCF               =   T
redata: Hamiltonian tolerance for SCF               =     0.001000 eV
redata: Require (free) Energy convergence for SCF   =   F
redata: (free) Energy tolerance for SCF             =     0.000100 eV
redata: Using DFT-D3 dispersion                     =   F
redata: Using Saved Data (generic)                  =   F
redata: Use continuation files for DM               =   T
redata: Neglect nonoverlap interactions             =   F
redata: Method of Calculation                       = Diagonalization
redata: Electronic Temperature                      =    10.0000 K
redata: Fix the spin of the system                  =   F
redata: Max. number of TDED Iter                    =        1
redata: Number of TDED substeps                     =        3
redata: Dynamics option                             = Single-point calculation
mix.SCF: Pulay mixing                            = Pulay
mix.SCF:    Variant                              = stable
mix.SCF:    History steps                        = 20
mix.SCF:    Linear mixing weight                 =     0.010000
mix.SCF:    Mixing weight                        =     0.010000
mix.SCF:    SVD condition                        = 0.1000E-07
redata: Save all siesta data in one NC              =   F
redata: ***********************************************************************

%block SCF.Mixers
  Pulay
%endblock SCF.Mixers

%block SCF.Mixer.Pulay
  # Mixing method
  method pulay
  variant stable

  # Mixing options
  weight 0.0100
  weight.linear 0.0100
  history 20
%endblock SCF.Mixer.Pulay

DM_history_depth set to one: no extrapolation allowed by default for geometry relaxation
Size of DM history Fstack: 1
Total number of electrons:   912.000000
Total ionic charge:   912.000000

* ProcessorY, Blocksize:    8  64


* Orbital distribution balance (max,min):   128    64

 Kpoints in:            1 . Kpoints trimmed:            1

siesta: k-grid: Number of k-points = 1
siesta: k-points from Monkhorst-Pack grid
siesta: k-cutoff (effective) =    10.000 Ang
siesta: k-point supercell and displacements
siesta: k-grid:     1     0     0      0.000
siesta: k-grid:     0     1     0      0.000
siesta: k-grid:     0     0     1      0.000

diag: Algorithm                                     = D&C
diag: Parallel over k                               =   F
diag: Use parallel 2D distribution                  =   T
diag: Parallel block-size                           = 64
diag: Parallel distribution                         =     4 x     8
diag: Used triangular part                          = Lower
diag: Absolute tolerance                            =  0.100E-15
diag: Orthogonalization factor                      =  0.100E-05
diag: Memory factor                                 =  1.0000


ts: **************************************************************
ts: Save H and S matrices                           =    F
ts: Save DM and EDM matrices                        =    F
ts: Only save the overlap matrix S                  =    F
ts: **************************************************************

************************ Begin: TS CHECKS AND WARNINGS ************************
************************ End: TS CHECKS AND WARNINGS **************************


                     ====================================
                        Single-point calculation
                     ====================================

outcell: Unit cell vectors (Ang):
       24.685488    0.000000    0.000000
        0.000000   25.653912    0.000000
        0.000000    0.000000   20.000000

outcell: Cell vector modules (Ang)   :   24.685488   25.653912   20.000000
outcell: Cell angles (23,13,12) (deg):     90.0000     90.0000     90.0000
outcell: Cell volume (Ang**3)        :  12665.5865
<dSpData1D:S at geom step 0
  <sparsity:sparsity for geom step 0
    nrows_g=2981 nrows=128 sparsity=.0097 nnzs=85817, refcount: 7>
  <dData1D:(new from dSpData1D) n=85817, refcount: 1>
refcount: 1>
new_DM -- step:     1
Initializing Density Matrix...

Attempting to read DM from file... Succeeded...
DM from file:
<dSpData2D:IO-DM: siesta.DM
  <sparsity:IO-DM: siesta.DM
    nrows_g=2981 nrows=128 sparsity=.0097 nnzs=85817, refcount: 1>
  <dData2D:(new from dSpData2D) n=85817 m=1, refcount: 1>
refcount: 1>
DM to be used:
<dSpData2D:Re-structured SpM
  <sparsity:sparsity for geom step 0
    nrows_g=2981 nrows=128 sparsity=.0097 nnzs=85817, refcount: 8>
  <dData2D:(new in restruct) n=85817 m=1, refcount: 1>
refcount: 1>
No. of atoms with KB's overlaping orbs in proc 0. Max # of overlaps:     104     221

InitMesh: MESH = 240 x 250 x 192 = 11520000
InitMesh: Mesh cutoff (required, used) =   250.000   254.709 Ry
New grid distribution [1]: sub = 2
New grid distribution [2]: sub = 2
New grid distribution [3]: sub = 2
Setting up quadratic distribution...

stepf: Fermi-Dirac step function

siesta: Program's energy decomposition (eV):
siesta: Ebs     =    -12113.532570
siesta: Eions   =     55608.971781
siesta: Ena     =     10755.827058
siesta: Ekin    =     25544.324831
siesta: Enl     =     -4239.094773
siesta: Eso     =         0.000000
siesta: Edftu   =         0.000000
siesta: DEna    =      -902.267928
siesta: DUscf   =        76.324473
siesta: DUext   =         0.000000
siesta: Ex      =    -10069.257719
siesta: Ec      =     -1234.209229
siesta: Exc     =    -11303.466948
siesta: EbV     =         0.000000
siesta: eta*DQ  =         0.000000
siesta: Emadel  =         0.000000
siesta: Emeta   =         0.000000
siesta: Emolmec =         0.000000
siesta: Ekinion =         0.000000
siesta: Eharris =    -35677.325191
siesta: Etot    =    -35677.325069
siesta: FreeEng =    -35677.325069

        iscf     Eharris(eV)        E_KS(eV)     FreeEng(eV)     dDmax    Ef(eV) dHmax(eV)
   scf:    1   -35677.325191   -35677.325069   -35677.325069  0.000040 -4.180564  0.001542
timer: Routine,Calls,Time,% = IterSCF        1       8.391  24.86
SCF_NOT_CONV: SCF did not converge  in maximum number of steps.
Geom step, scf iteration, dDmax, dHmax:    0     1      0.000040     0.000113

Using DM_out to compute the final energy and forces
No. of atoms with KB's overlaping orbs in proc 0. Max # of overlaps:     104     221

siesta: E_KS(eV) =           -35677.3251

siesta: E_KS - E_eggbox =    -35677.3251

siesta: Atomic forces (eV/Ang):
----------------------------------------
   Tot   -0.001650   -0.002067    0.000690
----------------------------------------
   Max    0.444060
   Res    0.092840    sqrt( Sum f_i^2 / 3N )
----------------------------------------
   Max    0.444060    constrained

Stress tensor Voigt[x,y,z,yz,xz,xy] (kbar):      -17.68      -19.64        0.12       -0.01        0.01        0.00
(Free)E + p*V (eV/cell)   -35579.3086
Target enthalpy (eV/cell)   -35677.3251

siesta: Program's energy decomposition (eV):
siesta: Ebs     =    -12113.532570
siesta: Eions   =     55608.971781
siesta: Ena     =     10755.827058
siesta: Ekin    =     25544.324831
siesta: Enl     =     -4239.094773
siesta: Eso     =         0.000000
siesta: Edftu   =         0.000000
siesta: DEna    =      -902.267928
siesta: DUscf   =        76.324473
siesta: DUext   =         0.000000
siesta: Ex      =    -10069.257719
siesta: Ec      =     -1234.209229
siesta: Exc     =    -11303.466948
siesta: EbV     =         0.000000
siesta: eta*DQ  =         0.000000
siesta: Emadel  =         0.000000
siesta: Emeta   =         0.000000
siesta: Emolmec =         0.000000
siesta: Ekinion =         0.000000
siesta: Eharris =    -35677.325191
siesta: Etot    =    -35677.325069
siesta: FreeEng =    -35677.325069

siesta: Final energy (eV):
siesta:  Band Struct. =  -12113.532570
siesta:       Kinetic =   25544.324831
siesta:       Hartree =  165293.195308
siesta:         Edftu =       0.000000
siesta:       Eso     =       0.000000
siesta:    Ext. field =       0.000000
siesta:         Exch. =  -10069.257719
siesta:         Corr. =   -1234.209229
siesta:     Bulk bias =       0.000000
siesta:   Exch.-corr. =  -11303.466948
siesta:  Ion-electron = -353893.033664
siesta:       Ion-ion =  138681.655404
siesta:       Ekinion =       0.000000
siesta: D3 dispersion =       0.000000
siesta:         Total =  -35677.325069
siesta:         Fermi =      -4.180564

siesta: Atomic forces (eV/Ang):
siesta:      1   -0.000265    0.117692   -0.000000
siesta:      2    0.002550    0.007921    0.001845
siesta:      3    0.002437   -0.004427    0.001960
siesta:      4   -0.197290   -0.243629   -0.000217
siesta:      5   -0.142672   -0.105444   -0.000055
siesta:      6    0.025551    0.010228   -0.000005
siesta:      7   -0.099043   -0.092679   -0.000003
siesta:      8    0.011063    0.119228    0.000013
siesta:      9   -0.035023   -0.076105    0.000004
siesta:     10   -0.035036    0.076363   -0.000000
siesta:     11    0.011313   -0.119274    0.000003
siesta:     12    0.017532    0.117553   -0.000003
siesta:     13   -0.019449   -0.110570    0.000010
siesta:     14   -0.162490    0.128219    0.000015
siesta:     15    0.110435   -0.039351   -0.000008
siesta:     16   -0.135203    0.442037   -0.000273
siesta:     17   -0.196660    0.038082   -0.000006
siesta:     18    0.233686   -0.129626   -0.000615
siesta:     19   -0.010329   -0.003355    0.000141
siesta:     20    0.000801   -0.007150    0.006113
siesta:     21    0.000036   -0.002873    0.001066
siesta:     22   -0.001076    0.002596    0.001150
siesta:     23   -0.000211    0.006817    0.006551
siesta:     24   -0.010265    0.000211    0.001214
siesta:     25    0.005798    0.001183    0.008031
siesta:     26    0.233267    0.130489   -0.000990
siesta:     27    0.006657   -0.000547    0.004775
siesta:     28   -0.000523    0.003830    0.000270
siesta:     29   -0.000236    0.112639   -0.000049
siesta:     30    0.002898   -0.104595    0.000005
siesta:     31    0.002576    0.104664    0.000009
siesta:     32   -0.000753    0.117084    0.000009
siesta:     33    0.031016   -0.235197    0.000048
siesta:     34    0.011007    0.238249    0.000052
siesta:     35    0.002531   -0.281694    0.000230
siesta:     36   -0.009663    0.003776    0.000365
siesta:     37    0.005601   -0.006199    0.001945
siesta:     38    0.004557    0.007880    0.008215
siesta:     39   -0.004849   -0.010184    0.002449
siesta:     40    0.001608    0.282290   -0.001568
siesta:     41    0.012013   -0.238127    0.000088
siesta:     42    0.030192    0.235451    0.000237
siesta:     43   -0.000544   -0.117544   -0.000023
siesta:     44   -0.013120    0.097094   -0.000002
siesta:     45    0.004275   -0.085320    0.000000
siesta:     46    0.004207    0.085359   -0.000002
siesta:     47   -0.013105   -0.096866   -0.000002
siesta:     48   -0.099529    0.093012   -0.000007
siesta:     49    0.025434   -0.010379    0.000020
siesta:     50   -0.143598    0.105677   -0.000004
siesta:     51   -0.198021    0.243352    0.000008
siesta:     52    0.000866   -0.007630    0.000886
siesta:     53   -0.196477   -0.038562    0.000049
siesta:     54   -0.136282   -0.440901   -0.000390
siesta:     55    0.110369    0.038780   -0.000035
siesta:     56    0.022510   -0.076848    0.000000
siesta:     57    0.022693    0.076991   -0.000000
siesta:     58   -0.021251   -0.076787    0.000001
siesta:     59   -0.064390    0.076360    0.000000
siesta:     60    0.040805   -0.041787    0.000000
siesta:     61    0.055134    0.040302    0.000002
siesta:     62   -0.055187   -0.045910    0.000001
siesta:     63   -0.010977    0.040350   -0.000009
siesta:     64    0.030295   -0.065188    0.000004
siesta:     65    0.121170    0.058983   -0.000012
siesta:     66   -0.171037   -0.167740   -0.000013
siesta:     67   -0.193730    0.149719    0.000043
siesta:     68    0.116546   -0.052785    0.000009
siesta:     69    0.117031    0.053035    0.000011
siesta:     70   -0.193139   -0.149159    0.000031
siesta:     71   -0.171549    0.167329   -0.000010
siesta:     72    0.120635   -0.058220   -0.000011
siesta:     73    0.030938    0.064903    0.000004
siesta:     74   -0.011075   -0.039674   -0.000021
siesta:     75   -0.055288    0.045640    0.000002
siesta:     76    0.054832   -0.039884    0.000005
siesta:     77    0.041163    0.041508   -0.000000
siesta:     78   -0.064527   -0.075933    0.000003
siesta:     79   -0.021276    0.076783    0.000001
siesta:     80   -0.006159   -0.071542    0.000009
siesta:     81    0.036338    0.125432   -0.000003
siesta:     82    0.017976   -0.120286   -0.000008
siesta:     83   -0.162612   -0.127615    0.000026
siesta:     84   -0.019456    0.110488    0.000012
siesta:     85    0.017668   -0.117172    0.000004
siesta:     86    0.026058    0.069697    0.000000
siesta:     87    0.000159   -0.114451   -0.000000
siesta:     88    0.000161    0.114470   -0.000001
siesta:     89    0.025837   -0.069771    0.000001
siesta:     90   -0.006042    0.071813    0.000003
siesta:     91    0.036317   -0.125911   -0.000001
siesta:     92    0.018120    0.120576   -0.000002
siesta:     93    0.077285    0.045061    0.000002
siesta:     94    0.098850   -0.092299    0.000006
siesta:     95    0.204759   -0.056204    0.000105
siesta:     96    0.225750    0.103002    0.000143
siesta:     97   -0.119352    0.071793   -0.000004
siesta:     98   -0.235215    0.009490   -0.000391
siesta:     99   -0.090193   -0.429922   -0.000011
siesta:    100   -0.090303    0.428769   -0.000023
siesta:    101   -0.235370   -0.008651   -0.000333
siesta:    102   -0.118409   -0.072028    0.000019
siesta:    103    0.225294   -0.102819    0.000162
siesta:    104   -0.049513    0.143926   -0.000018
siesta:    105    0.204571    0.056705    0.000190
siesta:    106    0.077923   -0.045330   -0.000003
siesta:    107   -0.049682   -0.144872   -0.000016
siesta:    108   -0.029146    0.234314    0.000269
siesta:    109   -0.000242   -0.112536    0.000001
siesta:    110    0.202590   -0.245538   -0.000455
siesta:    111   -0.037808   -0.123889    0.000006
siesta:    112   -0.018252    0.121173    0.000003
siesta:    113    0.054151   -0.044770    0.000006
siesta:    114    0.014866    0.038969    0.000014
siesta:    115    0.044336   -0.145044    0.000098
siesta:    116   -0.222459    0.108666   -0.000332
siesta:    117    0.170982   -0.167283    0.000070
siesta:    118    0.195324    0.146275   -0.000106
siesta:    119    0.088697   -0.435207    0.000168
siesta:    120    0.088841    0.432534    0.000173
siesta:    121    0.194598   -0.145537   -0.000139
siesta:    122    0.171723    0.166476    0.000065
siesta:    123   -0.222305   -0.107421   -0.000247
siesta:    124    0.044717    0.143415    0.000057
siesta:    125    0.014208   -0.038192   -0.000019
siesta:    126    0.054662    0.044310    0.000006
siesta:    127   -0.018333   -0.120462   -0.000011
siesta:    128   -0.037588    0.123637   -0.000003
siesta:    129    0.065198   -0.074412    0.000001
siesta:    130   -0.013745   -0.237506    0.000181
siesta:    131    0.035803   -0.074367    0.000004
siesta:    132    0.035814    0.074565   -0.000001
siesta:    133   -0.026008   -0.069328    0.000000
siesta:    134    0.065268    0.074696   -0.000001
siesta:    135    0.021777   -0.075745   -0.000000
siesta:    136   -0.000681    0.113866   -0.000000
siesta:    137   -0.000796   -0.113775    0.000001
siesta:    138   -0.022124   -0.077140    0.000001
siesta:    139   -0.022081    0.077311   -0.000001
siesta:    140   -0.000325   -0.117919    0.000001
siesta:    141   -0.000406    0.114340   -0.000001
siesta:    142   -0.041361   -0.041770    0.000002
siesta:    143   -0.052166    0.041205   -0.000004
siesta:    144   -0.001577   -0.131962    0.000003
siesta:    145    0.000582    0.123001   -0.000004
siesta:    146   -0.032699   -0.066474    0.000007
siesta:    147   -0.116067    0.061334    0.000029
siesta:    148   -0.001101   -0.274078    0.000004
siesta:    149    0.007555    0.070551   -0.000002
siesta:    150   -0.001334    0.268464    0.000003
siesta:    151   -0.114783    0.054877    0.000022
siesta:    152   -0.001260   -0.268898    0.000004
siesta:    153   -0.000956    0.272563    0.000002
siesta:    154   -0.116156   -0.060176    0.000035
siesta:    155   -0.033027    0.065995    0.000008
siesta:    156    0.000441   -0.122588    0.000001
siesta:    157   -0.001342    0.131177    0.000000
siesta:    158   -0.052578   -0.040553    0.000007
siesta:    159   -0.041430    0.041535   -0.000001
siesta:    160   -0.000449   -0.114103   -0.000001
siesta:    161    0.021929    0.075744    0.000001
siesta:    162   -0.113883   -0.054857    0.000002
siesta:    163    0.020891   -0.107681   -0.000007
siesta:    164   -0.026044    0.069255    0.000001
siesta:    165   -0.079117    0.046186    0.000023
siesta:    166   -0.018348    0.001282    0.003872
siesta:    167    0.033003    0.014560   -0.008468
siesta:    168    0.031380   -0.012840   -0.008146
siesta:    169    0.162874    0.124689   -0.000018
siesta:    170    0.001257    0.001701   -0.000051
siesta:    171   -0.012270   -0.000152    0.000959
siesta:    172    0.134904   -0.441386    0.000416
siesta:    173   -0.113417    0.032367   -0.000103
siesta:    174    0.141300   -0.103749   -0.000105
siesta:    175   -0.026115    0.009822   -0.000018
siesta:    176   -0.018503   -0.115789    0.000018
siesta:    177    0.014014    0.096604   -0.000019
siesta:    178   -0.002999   -0.103911    0.000005
siesta:    179   -0.002896    0.104048    0.000012
siesta:    180    0.014244   -0.096334    0.000001
siesta:    181    0.099106    0.092626    0.000027
siesta:    182   -0.029608   -0.233351   -0.000048
siesta:    183   -0.014159    0.237650    0.000120
siesta:    184    0.204377    0.246006    0.000197
siesta:    185   -0.002103    0.008507    0.000768
siesta:    186   -0.002266    0.001790   -0.001540
siesta:    187   -0.001140    0.007022    0.007056
siesta:    188   -0.006025   -0.008663    0.002625
siesta:    189    0.008457    0.003770   -0.005967
siesta:    190   -0.013690    0.002100   -0.000588
siesta:    191   -0.016428   -0.010983    0.004311
siesta:    192   -0.114399   -0.031822    0.000055
siesta:    193   -0.198420   -0.056436   -0.000153
siesta:    194    0.195647    0.042855    0.000359
siesta:    195   -0.224712   -0.132432    0.001828
siesta:    196    0.116339    0.068540    0.000517
siesta:    197    0.248431    0.006648    0.001512
siesta:    198    0.134145    0.444060    0.000962
siesta:    199    0.008913    0.008392    0.001658
siesta:    200    0.248172   -0.005128    0.001379
siesta:    201    0.115035   -0.070104    0.000479
siesta:    202   -0.225268    0.134990    0.000497
siesta:    203    0.195630   -0.043787    0.000318
siesta:    204    0.006543   -0.012450    0.001201
siesta:    205   -0.079505   -0.046470   -0.000002
siesta:    206   -0.199762    0.057689    0.000096
siesta:    207   -0.026052   -0.009869   -0.000025
siesta:    208   -0.018370    0.116214    0.000015
siesta:    209   -0.012310   -0.117330   -0.000003
siesta:    210   -0.004633    0.084917    0.000003
siesta:    211    0.142642    0.103857    0.000073
siesta:    212   -0.011913    0.117585    0.000017
siesta:    213    0.007222   -0.070392    0.000012
siesta:    214    0.020869    0.107950    0.000004
siesta:    215    0.162913   -0.124279   -0.000016
siesta:    216   -0.004871   -0.084919   -0.000003
siesta:    217   -0.010950   -0.009957   -0.000148
siesta:    218   -0.007103    0.005076   -0.002527
siesta:    219   -0.005366   -0.012894    0.000929
siesta:    220   -0.004355    0.003037   -0.000702
siesta:    221   -0.000319   -0.014857    0.002726
siesta:    222    0.001478   -0.016484    0.009400
siesta:    223    0.009545   -0.005556    0.068272
siesta:    224    0.006900    0.003247    0.072103
siesta:    225   -0.004296    0.011025    0.017063
siesta:    226   -0.004777    0.003571   -0.003439
siesta:    227   -0.003720    0.002370    0.006508
siesta:    228   -0.006495   -0.002891   -0.001672
siesta:    229   -0.003026   -0.013082    0.038904
siesta:    230    0.080466   -0.098373    0.054475
siesta:    231    0.020287    0.021019    0.002373
siesta:    232    0.020401   -0.007295    0.025814
siesta:    233    0.000225   -0.001191   -0.012217
siesta:    234    0.006182    0.012448   -0.011167
siesta:    235    0.022261   -0.027252   -0.020845
siesta:    236   -0.038231    0.036665   -0.020782
siesta:    237    0.007835   -0.008843    0.005002
siesta:    238    0.001616    0.004809    0.007778
siesta:    239   -0.018233    0.010793   -0.037312
siesta:    240   -0.029435    0.065021   -0.053068
siesta:    241   -0.104748    0.030777   -0.196244
siesta: ----------------------------------------
siesta:    Tot   -0.001650   -0.002067    0.000690

siesta: Stress tensor (static) (eV/Ang**3):
siesta:    -0.011036    0.000003    0.000006
siesta:     0.000003   -0.012256   -0.000006
siesta:     0.000006   -0.000006    0.000076

siesta: Cell volume =      12665.586541 Ang**3

siesta: Pressure (static):
siesta:                Solid            Molecule  Units
siesta:           0.00008429          0.00009457  Ry/Bohr**3
siesta:           0.00773880          0.00868332  eV/Ang**3
siesta:          12.39893173         13.91222004  kBar
(Free)E+ p_basis*V_orbitals  =      -35578.193769
(Free)Eharris+ p_basis*V_orbitals  =      -35578.193890

siesta: Electric dipole (a.u.)  =   -0.000000   -0.000000    0.906703
siesta: Electric dipole (Debye) =   -0.000000   -0.000000    2.304610

Optical: Performing optical calculation: 

Optical: Polarization type       = polarized   
Optical: Minimum of energy range =   0.0000 Ry 
Optical: Maximum of energy range =   0.7350 Ry 
Optical: Gaussian broadening     =   0.0037 Ry 
Optical: Scissor operator        =   0.0000 Ry 
Optical: Number of bands         =     2981
Optical: Number of electrons     =      912
Optical: BZ mesh dimensions      =    3   3   1

Optical: electric field direction
Optical:      1.00000     0.00000     0.00000

Optical: Checking f-sum rule  0.151582
Optical: For insulators and closed shell systems
Optical: this number should be close to 1 if an enough
Optical: number of unoccupied bands have been included

cite: Please indicate the Siesta version in published work: unreleased 21e88d34b (2025-02-04)
cite: This calculation has made use of features in the following articles
cite: which we encourage you to cite in published work.
cite: (Please see "siesta.bib" for a BibTeX file.)
        Primary SIESTA paper
          DOI: www.doi.org/10.1088/0953-8984/14/11/302


>> End of run:  13-JAN-2026   0:41:46
Job completed
